/*--------------------------------*- C++ -*----------------------------------*\
| =========                 |                                                 |
| \\      /  F ield         | OpenFOAM: The Open Source CFD Toolbox           |
|  \\    /   O peration     | Version:  v2012                                 |
|   \\  /    A nd           | Website:  www.openfoam.com                      |
|    \\/     M anipulation  |                                                 |
\*---------------------------------------------------------------------------*/
FoamFile
{
    version     2.0;
    format      ascii;
    class       volScalarField;
    location    "1.4";
    object      alpha.water;
}
// * * * * * * * * * * * * * * * * * * * * * * * * * * * * * * * * * * * * * //

dimensions      [0 0 0 0 0 0 0];


internalField   nonuniform List<scalar> 
96000
(
0
0
0
0
0
0
0
0
0
0
0
0
0
0
0
0
0
0
0
0
0
0
0
0
0
0
0
0
0
0
0
0
0
0
0
0
0
0
0
0
0
0
0
0
0
0
0
0
0
0
0
0
0
0
0
0
0
0
0
0
0
0
0
0
0
0
0
0
0
0
0
0
0
0
0
0
0
0
0
0
0
0
0
0
0
0
0
0
0
0
0
0
0
0
0
0
0
0
0
0
0
0
0
0
0
0
0
0
0
0
0
0
0
0
0
0
0
0
0
0
0
0
0
0
0
0
0
0
0
0
0
0
0
0
0
0
0
0
0
0
0
0
0
0
0
0
0
0
0
0
0
0
0
0
0
0
0
0
0
0
0
0
0
0
0
0
0
0
0
0
0
0
0
0
0
0
0
0
0
0
0
0
0
0
0
0
0
0
0
0
0
0
0
0
0
0
0
0
0
0
0
0
0
0
0
0
0
0
0
0
0
0
0
0
0
0
0
0
0
0
0
0
0
0
0
0
0
0
0
0
0
0
0
0
0
0
0
0
0
0
0
0
0
0
0
0
0
0
0
0
0
0
0
0
0
0
0
0
0
0
0
0
0
0
0
0
0
0
0
0
0
0
0
0
0
0
0
0
0
0
0
0
0
0
0
0
0
0
0
0
0
0
0
0
0
0
0
0
0
0
0
0
0
0
0
0
0
0
0
0
0
0
0
0
0
0
0
0
0
0
0
0
0
0
0
0
0
0
0
0
0
0
0
0
0
0
0
0
0
0
0
0
0
0
0
0
0
0
0
0
0
0
0
0
0
0
0
0
0
0
0
0
0
0
0
0
0
0
0
0
0
0
0
0
0
0
0
0
0
0
0
0
0
0
0
0
0
0
0
0
0
0
0
0
0
0
0
0
0
0
0
0
0
0
0
0
0
0
0
0
0
0
0
0
0
0
0
0
0
0
0
0
0
0
0
0
0
0
0
0
0
0
0
0
0
0
0
0
0
0
0
0
0
0
0
0
0
0
0
0
0
0
0
0
0
0
0
0
0
0
0
0
0
0
0
0
0
0
0
0
0
0
0
0
0
0
0
0
0
0
0
0
0
0
0
0
0
0
0
0
0
0
0
0
0
0
0
0
0
0
0
0
0
0
0
0
0
0
0
0
0
0
0
0
0
0
0
0
0
0
0
0
0
0
0
0
0
0
0
0
0
0
0
0
0
0
0
0
0
0
0
0
0
0
0
0
0
0
0
0
0
0
0
0
0
0
0
0
0
0
0
0
0
0
0
0
0
0
0
0
0
0
0
0
0
0
0
0
0
0
0
0
0
0
0
0
0
0
0
0
0
0
0
0
0
0
0
0
0
0
0
0
0
0
0
0
0
0
0
0
0
0
0
0
0
0
0
0
0
0
0
0
0
0
0
0
0
0
0
0
0
0
0
0
0
0
0
0
0
0
0
0
0
0
0
0
0
0
0
0
0
0
0
0
0
0
0
0
0
0
0
0
0
0
0
0
0
0
0
0
0
0
0
0
0
0
0
0
0
0
0
0
0
0
0
0
0
0
0
0
0
0
0
0
0
0
0
0
0
0
0
0
0
0
0
0
0
0
0
0
0
0
0
0
0
0
0
0
0
0
0
0
0
0
0
0
0
0
0
0
0
0
0
0
0
0
0
0
0
0
0
0
0
0
0
0
0
0
0
0
0
0
0
0
0
0
0
0
0
0
0
0
0
0
0
0
0
0
0
0
0
0
0
0
0
0
0
0
0
0
0
0
0
0
0
0
0
0
0
0
0
0
0
0
0
0
0
0
0
0
0
0
0
0
0
0
0
0
0
0
0
0
0
0
0
0
0
0
0
0
0
0
0
0
0
0
0
0
0
0
0
0
0
0
0
0
0
0
0
0
0
0
0
0
0
0
0
0
0
0
0
0
0
0
0
0
0
0
0
0
0
0
0
0
0
0
0
0
0
0
0
0
0
0
0
0
0
0
0
0
0
0
0
0
0
0
0
0
0
0
0
0
0
0
0
0
0
0
0
0
0
0
0
0
0
0
0
0
0
0
0
0
0
0
0
0
0
0
0
0
0
0
0
0
0
0
0
0
0
0
0
0
0
0
0
0
0
0
0
0
0
0
0
0
0
0
0
0
0
0
0
0
0
0
0
0
0
0
0
0
0
0
0
0
0
0
0
0
0
0
0
0
0
0
0
0
0
0
0
0
0
0
0
0
0
0
0
0
0
0
0
0
0
0
0
0
0
0
0
0
0
0
0
0
0
0
0
0
0
0
0
0
0
0
0
0
0
0
0
0
0
0
0
0
0
0
0
0
0
0
0
0
0
0
0
0
0
0
0
0
0
0
0
0
0
0
0
0
0
0
0
0
0
0
0
0
0
0
0
0
0
0
0
0
0
0
0
0
0
0
0
0
0
0
0
0
0
0
0
0
0
0
0
0
0
0
0
0
0
0
0
0
0
0
0
0
0
0
0
0
0
0
0
0
0
0
0
0
0
0
0
0
0
0
0
0
0
0
0
0
0
0
0
0
0
0
0
0
0
0
0
0
0
0
0
0
0
0
0
0
0
0
0
0
0
0
0
0
0
0
0
0
0
0
0
0
0
0
0
0
0
0
0
0
0
0
0
0
0
0
0
0
0
0
0
0
0
0
0
0
0
0
0
0
0
0
0
0
0
0
0
0
0
0
0
0
0
0
0
0
0
0
0
0
0
0
0
0
0
0
0
0
0
0
0
0
0
0
0
0
0
0
0
0
0
0
0
0
0
0
0
0
0
0
0
0
0
0
0
0
0
0
0
0
0
0
0
0
0
0
0
0
0
0
0
0
0
0
0
0
0
0
0
0
0
0
0
0
0
0
0
0
0
0
0
0
0
0
0
0
0
0
0
0
0
0
0
0
0
0
0
0
0
0
0
0
0
0
0
0
0
0
0
0
0
0
0
0
0
0
0
0
0
0
0
0
0
0
0
0
0
0
0
0
0
0
0
0
0
0
0
0
0
0
0
0
0
0
0
0
0
0
0
0
0
0
0
0
0
0
0
0
0
0
0
0
0
0
0
0
0
0
0
0
0
0
0
0
0
0
0
0
0
0
0
0
0
0
0
0
0
0
0
0
0
0
0
0
0
0
0
0
0
0
0
0
0
0
0
0
0
0
0
0
0
0
0
0
0
0
0
0
0
0
0
0
0
0
0
0
0
0
0
0
0
0
0
0
0
0
0
0
0
0
0
0
0
0
0
0
0
0
0
0
0
0
0
0
0
0
0
0
0
0
0
0
0
0
0
0
0
0
0
0
0
0
0
0
0
0
0
0
0
0
0
0
0
0
0
0
0
0
0
0
0
0
0
0
0
0
0
0
0
0
0
0
0
0
0
0
0
0
0
0
0
0
0
0
0
0
0
0
0
0
0
0
0
0
0
0
0
0
0
0
0
0
0
0
0
0
0
0
0
0
0
0
0
0
0
0
0
0
0
0
0
0
0
0
0
0
0
0
0
0
0
0
0
0
0
0
0
0
0
0
0
0
0
0
0
0
0
0
0
0
0
0
0
0
0
0
0
0
0
0
0
0
0
0
0
0
0
0
0
0
0
0
0
0
0
0
0
0
0
0
0
0
0
0
0
0
0
0
0
0
0
0
0
0
0
0
0
0
0
0
0
0
0
0
0
0
0
0
0
0
0
0
0
0
0
0
0
0
0
0
0
0
0
0
0
0
0
0
0
0
0
0
0
0
0
0
0
0
0
0
0
0
0
0
0
0
0
0
0
0
0
0
0
0
0
0
0
0
0
0
0
0
0
0
0
0
0
0
0
0
0
0
0
0
0
0
0
0
0
0
0
0
0
0
0
0
0
0
0
0
0
0
0
0
0
0
0
0
0
0
0
0
0
0
0
0
0
0
0
0
0
0
0
0
0
0
0
0
0
0
0
0
0
0
0
0
0
0
0
0
0
0
0
0
0
0
0
0
0
0
0
0
0
0
0
0
0
0
0
0
0
0
0
0
0
0
0
0
0
0
0
0
0
0
0
0
0
0
0
0
0
0
0
0
0
0
0
0
0
0
0
0
0
0
0
0
0
0
0
0
0
0
0
0
0
0
0
0
0
0
0
0
0
0
0
0
0
0
0
0
0
0
0
0
0
0
0
0
0
0
0
0
0
0
0
0
0
0
0
0
0
0
0
0
0
0
0
0
0
0
0
0
0
0
0
0
0
0
0
0
0
0
0
0
0
0
0
0
0
0
0
0
0
0
0
0
0
0
0
0
0
0
0
0
0
0
0
0
0
0
0
0
0
0
0
0
0
0
0
0
0
0
0
0
0
0
0
0
0
0
0
0
0
0
0
0
0
0
0
0
0
0
0
0
0
0
0
0
0
0
0
0
0
0
0
0
0
0
0
0
0
0
0
0
0
0
0
0
0
0
0
0
0
0
0
0
0
0
0
0
0
0
0
0
0
0
0
0
0
0
0
0
0
0
0
0
0
0
0
0
0
0
0
0
0
0
0
0
0
0
0
0
0
4.536286328096283128355077e-47
6.255838177485256392789197e-45
4.191688379167406426587404e-43
1.825876577665793822007939e-41
5.398034496691507221143897e-40
1.084744746352934775895167e-38
2.237681660007687423381691e-37
6.94017099779931327036935e-36
2.290398140509903049432561e-34
5.381236588576764015828131e-33
1.21269284982439101921332e-31
1.369728476618326104509391e-30
1.261901977843062225736425e-25
1.467588685459708518267744e-25
1.603133065816080925759783e-25
1.732082293078213657111551e-25
1.864935369471383974847297e-25
2.006796569548791808039693e-25
2.178284923385302802238376e-25
2.392292372533091847122702e-25
2.536342699280897762441507e-25
2.55553176855760687502895e-25
2.554045857959032086476714e-25
2.547691987742526155999654e-25
2.535156825674460161637281e-25
2.518074265737894271531774e-25
2.496717279292009066688928e-25
2.470199196133413189017357e-25
2.444433885597791400421154e-25
2.430387779012101950726507e-25
2.426194777357927826554273e-25
2.424776043003049639998007e-25
2.423592348252280557461955e-25
2.421476857745769908087127e-25
2.416586488111273143558816e-25
2.406174344866224080250775e-25
2.387572925033024015894294e-25
2.359245855188483462115057e-25
2.320731150786616268217039e-25
2.271732900970540169810022e-25
2.211651088927533422922004e-25
2.140331975878628717518695e-25
2.059532456836338411298085e-25
1.973028149498042036011022e-25
1.883369417396397157071757e-25
1.787221449854813945830279e-25
1.673355427008587762369126e-25
1.524824950901482238183842e-25
1.328130863506087333612871e-25
1.08960364097319893215696e-25
8.43123872006593479501541e-26
6.367667711136640060670905e-26
5.040173372956997567815396e-26
4.34559903726748321672791e-26
3.906463641333733514564702e-26
3.382167213943221585062762e-26
2.484926791212203595868407e-26
1.639273669607600538604927e-26
1.492238803123807161592634e-26
1.533829142512498436457898e-26
1.926096799986237826037396e-26
3.874367584280815892624359e-26
1.144005843000492221742117e-25
3.708750524277521324901316e-25
1.155549296280733018140111e-24
3.340596549385348245633176e-24
8.845468829307289252022451e-24
2.116377621385455646129506e-23
4.468913318236539578287258e-23
8.028624617925587071542187e-23
1.195124284657989705053674e-22
1.500581953647382718936163e-22
1.632406462449038516220084e-22
2.889448145714616973212428e-22
2.247244167693229243555828e-22
5.186194215903940986418273e-23
1.145789802707620983928507e-24
8.210588299630570571330269e-28
9.67865168984976231781784e-33
8.49420293748590871318047e-38
5.818399222062123698320377e-43
3.384513497466502497725208e-48
1.990671126832416146641497e-53
1.228722731981294260748186e-58
5.867136442292740403527058e-64
2.400271967854471022611187e-69
1.017657013130163337141992e-74
4.201751617638670064117199e-80
1.414319371743174785687746e-85
4.583605113621613482652816e-91
1.503758000099392408528174e-96
4.183546558751416801816978e-102
1.028121915907475471732461e-107
2.549410758927346972023597e-113
5.925667350647214966006031e-119
1.143120406442696251531961e-124
2.22004488038144658207048e-130
4.734658955831135361184468e-136
9.180911967362317523087619e-142
1.853495689072383589695641e-147
7.79966970136064344198322e-150
6.274579254032482670764225e-151
6.609218266522467391705421e-152
6.39625690198005173764892e-153
6.329670633260647649921432e-154
6.314396600687969867312418e-155
6.31401210658987683547816e-156
6.344288439858188455027246e-157
6.400853695576264782609339e-158
6.491319154723863589524328e-159
6.624444370921071162560675e-160
6.809998779393059752529797e-161
7.064370704365697408351664e-162
7.423342326026155234837726e-163
7.975919477722750672293488e-164
8.955621660729403094938864e-165
1.09897272387415194502282e-165
1.577638295201156965715537e-166
2.790487753090636781221503e-167
5.968242045212077882116399e-168
1.437290349288378351283872e-168
3.652660594495029793945729e-169
9.433529551849572302452304e-170
2.431334681486456315308985e-170
6.201665583536365955190286e-171
1.559502975208311260953494e-171
3.85887488159844853433956e-172
9.386668156404450242538644e-173
2.243433910618267014318019e-173
5.266768249765643085696009e-174
1.21434261140587677908423e-174
2.749648570983564949748582e-175
6.114315404256143678419248e-176
1.335254729880740865629593e-176
2.863830348374563063434578e-177
6.032892692929483231427232e-178
1.248337926957600906041239e-178
2.537484201100152113541026e-179
5.067312181385397181845631e-180
9.942485373320107700222687e-181
1.916884039695292105465614e-181
3.631793864660949569282866e-182
6.762571269919606211930271e-183
1.237680037790465792457732e-183
2.226644313905925936513275e-184
3.93802681294778941325935e-185
6.847476195435240793835157e-186
1.170696408857901857163291e-186
1.968144087613224934966622e-187
3.253901155350004434981082e-188
5.290804587825016606963075e-189
8.461415491094412190284077e-190
1.331071157801785123089144e-190
2.059816186986768597040151e-191
3.135852013407259923419827e-192
4.696912552523598927899335e-193
6.921944366858586433814411e-194
1.00376099304125079178525e-194
1.43233944009433283987616e-195
2.011411115523257786277678e-196
2.779840200484956877103805e-197
3.781174711675949231452627e-198
5.062259945964028911560934e-199
6.671059415604377499993179e-200
8.653638887036715778131216e-201
1.105035668786938607833974e-201
1.389141324642151661827362e-202
1.71920348237043707025807e-203
2.094768546037521484388351e-204
2.512979843380002144960309e-205
2.968257388301035464342681e-206
3.45213846806913930186826e-207
3.953325590447969494559977e-208
4.457973142473363166960688e-209
4.950222278916459401350588e-210
5.412967144908226496608347e-211
5.828807654873551714407174e-212
6.181118460461074908829501e-213
6.455144291623637062152086e-214
6.639021836161039219127626e-215
6.724629856141888822953915e-216
6.708182835341107079865137e-217
6.590507825907013912969258e-218
6.376976365606097269076708e-219
6.077099186702483539101709e-220
5.703826177840912823090022e-221
5.272623127523011389552524e-222
4.800416527063792012095538e-223
4.304505968649070318281201e-224
3.8015400177727777850252e-225
3.306637165381464512884221e-226
2.832711267729599637863225e-227
2.390034322278992197293776e-228
1.986042305771129319110008e-229
1.625365551863708045220239e-230
1.310046369697997888523933e-231
1.039894788343544853637912e-232
8.129287734580503846869214e-234
6.258472913378848124366239e-235
4.744917342276585389263665e-236
3.542616140322281738771365e-237
2.604621724542839647334921e-238
1.885729695552409100817208e-239
1.344363452895692186690896e-240
9.437214571475770891744751e-242
6.522999873914271115152185e-243
4.439284488435322543383742e-244
2.974578427759106127501943e-245
1.962314378133017060243022e-246
1.274457714705680019357562e-247
8.148506263429401044381182e-249
5.128701424047347129094207e-250
3.177560523851913228933578e-251
1.937833440185971330729843e-252
1.163197547996246733992125e-253
6.871984128391869686594102e-255
3.995569234085858094071226e-256
2.286220880351147577564642e-257
1.287285401500203640763374e-258
7.132169794910334776058833e-260
3.888039068824426045642662e-261
2.085319032564588745207595e-262
1.100314946357489838945955e-263
5.711269359427349658749188e-265
2.915994551342342246021855e-266
1.464351338950141791033325e-267
7.232246315572173174264892e-269
3.512642925478994842437057e-270
1.677605679340781786848477e-271
7.877741308782724119983727e-273
3.636879807370220040177639e-274
1.650553541785204780633507e-275
7.363092822590132581943065e-277
3.228315442294067463254725e-278
1.391009700970885849595124e-279
5.889449877609833269699145e-281
2.449965040460228851429257e-282
1.001230634253374418397118e-283
4.019242288963131125452753e-285
1.584655887181722743986797e-286
6.135493392368320812150778e-288
2.332538542443708831486844e-289
8.705866935797616174623012e-291
3.189598643739918711972591e-292
1.146926681278772897473911e-293
4.047095177525092978869638e-295
1.401165802381239704164165e-296
4.758847305435816461118824e-298
1.585277887437551192592283e-299
5.178727565168087345756386e-301
1.658726075794740753454509e-302
5.208075776658832044168609e-304
1.60267344892905882521221e-305
4.832689967616651074263616e-307
1.427633617187148259270651e-308
4.130788498333883824374418e-310
1.170411047121695119581699e-311
3.246611586345739866095833e-313
8.814589036670373390644526e-315
2.341763257350456891151688e-316
6.086152598951853966904504e-318
1.546474878047685807927078e-319
3.868534006936960440902534e-321
8.399115979301191251001669e-323
0
0
0
0
0
0
0
0
0
0
0
0
0
0
0
0
0
0
0
0
0
0
0
0
0
0
0
0
0
0
0
0
0
0
0
0
0
0
0
0
0
0
0
0
0
0
0
0
0
0
0
0
0
0
0
0
0
0
0
0
0
0
0
0
0
0
0
0
0
0
0
0
0
0
0
0
0
0
0
0
0
0
0
0
0
0
0
0
0
0
0
0
0
0
0
0
0
0
0
0
0
0
0
0
0
0
0
0
0
0
0
0
0
0
0
0
0
0
0
0
0
0
0
0
0
0
0
0
0
0
0
0
0
0
0
1.117517285868713577537876e-47
5.767158496595759252478372e-45
6.76075610660603713547907e-43
4.184338021887793440000585e-41
1.759910732657624833861825e-39
5.516823512170588364180246e-38
1.262973815076136882673889e-36
2.364093118432088534383607e-35
4.590595463637029313016027e-34
1.089681520207782158680276e-32
2.503309477736644634801734e-31
6.337247078961625538154509e-30
8.393358919877616123861768e-29
5.193342640678375641289717e-24
6.515226515946827827358215e-24
7.526934046756269246082887e-24
8.556070935528505110225842e-24
9.67367278665758321372464e-24
1.090893466416118657281539e-23
1.228527490971366791725889e-23
1.378770067185401293633249e-23
1.533956077560914945885694e-23
1.68951603997571356415231e-23
1.847819992214978297208128e-23
2.008876261708539085020027e-23
2.165606531642957214781112e-23
2.322860742902096773925541e-23
2.526955588033262068938534e-23
2.863196929138174087711725e-23
3.240058902775832152721066e-23
3.355282687291986554131505e-23
3.356446849319506600266229e-23
3.346312503275138579956609e-23
3.312127599965979716071141e-23
3.247827443191320660069716e-23
3.180173507339494332197735e-23
3.141020973165982898056745e-23
3.121904901770797305095805e-23
3.106172236870051952454983e-23
3.083746384968282906897895e-23
3.044548791457458932961262e-23
2.977376588472849572992536e-23
2.873944932976053685211187e-23
2.733149917984985781237512e-23
2.557714667384653380013941e-23
2.344438736654465051478518e-23
2.082055347929378294707803e-23
1.769548478920676844003254e-23
1.445894902040848248319088e-23
1.171970973892113769069426e-23
9.633918102066509276448603e-24
7.93071297704444189961829e-24
6.454102448572466014816852e-24
5.321936404310021798675667e-24
4.524806448878495371401849e-24
3.752878105688476092769129e-24
2.763913743843706548693957e-24
2.098564469949161681114524e-24
2.034927539141639531340253e-24
2.133019586006521771762544e-24
2.918392458219485016582513e-24
6.609373699419761560024903e-24
2.056375996503891269748432e-23
6.661886923384686037510857e-23
2.024182420128889994366987e-22
5.608493583312409368401047e-22
1.398199716232005668252496e-21
3.087568055698695485578716e-21
5.906807920334200232621312e-21
9.585971924969656149080019e-21
1.318659387209843045793951e-20
1.590132807010787581066668e-20
1.769038514123752855871878e-20
1.873337772360630613383885e-20
1.770997997700589476919606e-20
3.968459157713665529697237e-21
6.467031801569736556650095e-23
6.424046218423258109377265e-26
1.150480738056294404574822e-29
1.953474499628132874569314e-34
2.053619970629224701123736e-39
1.675689887685118626929186e-44
1.278579658276997323067877e-49
9.338232876130884287571906e-55
5.216154443691057691182035e-60
2.482737673939638652701945e-65
1.19780206659972636621652e-70
5.464346252733341984877923e-76
2.038351514764712529534624e-81
7.311226683260069067002831e-87
2.620533897837012773840769e-92
7.980516729703247053590382e-98
2.173787627634952833588927e-103
5.915391611263188750074717e-109
1.481226762841789584130493e-114
3.094337192597075502247531e-120
6.449704060757907007625633e-126
1.451267135240621473053792e-131
3.000286094703876111085052e-137
6.375808712864671300629948e-143
1.587502077675078805633741e-148
4.338773387333639509575639e-150
5.447561769062550904143543e-151
5.904906640674013402302104e-152
6.424679020445549754054789e-153
7.056541336749220767561786e-154
7.682662404913692945410166e-155
8.349571316385308188444623e-156
9.062394683358285526159006e-157
9.84130180215683350766818e-158
1.071326860858635225626689e-158
1.171421486002712657536285e-159
1.290976911425875711087754e-160
1.444757221700134766604214e-161
1.670617326201775390289947e-162
2.071896435487103527254173e-163
2.937642330081742446078709e-164
5.080171261769257420543359e-165
1.077015685840400916063558e-165
2.628604901732082461935912e-166
6.874313594027294568534519e-167
1.84045185306889792152364e-167
4.931581770633441648529751e-168
1.30901489259543794606461e-168
3.425883674872539042408271e-169
8.82098976596795260181615e-170
2.232071649122712253450056e-170
5.547577523146292246477505e-171
1.353873800676542785813864e-171
3.243934269058828265618466e-172
7.630667737795960643865167e-173
1.762183281453372475425317e-173
3.995347412943637463425662e-174
8.89406314066583388028457e-175
1.944116460884752577056043e-175
4.17310849631398182134906e-176
8.79740187501109356727069e-177
1.82158964973409902238059e-177
3.705042550345646008944613e-178
7.403347153658777757425173e-179
1.453453524330245452243343e-179
2.803870512471743445587318e-180
5.315495105596328319145642e-181
9.903826316367688085979458e-182
1.813759139626941380794226e-182
3.265249860120341960075156e-183
5.779035701156797651706662e-184
1.005628144957332626183823e-184
1.720689169992800417972634e-185
2.895270816494450370131708e-186
4.791102060413566024691019e-187
7.797900787951320153606704e-188
1.248393563329740139352455e-188
1.966034955233320415913779e-189
3.04600145881642616104866e-190
4.643017216051056851554487e-191
6.963584693586181116161332e-192
1.027679742592469407613895e-192
1.492464506753454057573961e-193
2.133041816325270258086821e-194
3.000341484536421337073763e-195
4.153782504962879992221182e-196
5.6603507265756124082798e-197
7.592647324062538556959597e-198
1.002573444657650266847907e-198
1.303268999664713155106186e-199
1.667891078015180431322903e-200
2.101536643215805998787089e-201
2.607119172913051708475829e-202
3.18461904333928376156765e-203
3.830398181218021085921047e-204
4.536662083240111958010286e-205
5.291153627573314891493475e-206
6.077153689056701573723673e-207
6.873842650837174274078807e-208
7.657045410147398685889191e-209
8.400343174944171956030604e-210
9.076492668951896795797183e-211
9.659052869348719553801149e-212
1.012408699104663007403248e-212
1.045178837470365196068864e-213
1.062787693198184877892511e-214
1.064462923992056568974772e-215
1.050143895695745359064152e-216
1.020485105061381394659842e-217
9.768067416827769217389113e-219
9.209975733492541856093402e-220
8.553800721783544868745033e-221
7.825511407604877875758954e-222
7.052135538767692493924228e-223
6.260131653314533139350086e-224
5.473951694568187192164064e-225
4.714896091397607599260431e-226
4.000323982958102248734032e-227
3.343239512941437959010679e-228
2.752236295780705336901466e-229
2.231750633182037426970967e-230
1.782552614151875409195001e-231
1.402393877258209743297478e-232
1.086730921356842249409205e-233
8.294515182249807884528437e-235
6.235463358618805461962625e-236
4.616854144022313605470343e-237
3.366769618244787219535023e-238
2.418019242127079539832322e-239
1.710305350304645749545158e-240
1.191359111850773736116552e-241
8.172474693419717531503838e-243
5.520675039810815771156898e-244
3.672344836917840669026113e-245
2.405423039306037035021452e-246
1.551384255685505366705688e-247
9.851660482189787401558605e-249
6.159464315013661145746795e-250
3.791405707894726282178368e-251
2.297527821748720775724073e-252
1.370575349452383858904832e-253
8.04829874706295051114674e-255
4.652010617700488311539918e-256
2.646598788578174198866991e-257
1.481905935468378679592204e-258
8.166040293419084945920349e-260
4.428257747996400086590535e-261
2.362956750870324486901004e-262
1.240652156250715132000041e-263
6.408912996704753454779207e-265
3.257064030194213116455302e-266
1.62832866397131047529818e-267
8.007495521257225855640341e-269
3.87305736764109311559747e-270
1.842366995678713804767013e-271
8.618355275712672345161666e-273
3.964225238449730396307334e-274
1.792817764775132669437053e-275
7.971033015992044845999753e-277
3.483765621639988383931231e-278
1.496555310737321772487658e-279
6.3182701444729784746569e-281
2.621293061556144092460138e-282
1.068546969320253819218418e-283
4.279363948654835529399336e-285
1.683516936341861144281318e-286
6.505064705030775793196928e-288
2.468441683535782510578909e-289
9.197514436092154196427946e-291
3.364585631140109081236798e-292
1.208206514966091427661065e-293
4.258258005385079605438814e-295
1.472768138589524938359071e-296
4.997771276497002793548562e-298
1.663732198615385414546929e-299
5.432232608480995208008068e-301
1.739327265055010183078299e-302
5.460212474775830049879093e-304
1.680263508600827180400736e-305
5.067527349138201523963064e-307
1.497523604547124260959514e-308
4.33525625266567423178234e-310
1.229194259333939094486017e-311
3.412623488046175877717528e-313
9.274957434143320013934542e-315
2.467067395943680493691279e-316
6.4206301005299194648466e-318
1.63456678270118006675376e-319
4.031575670064571800480801e-321
8.399115979301191251001669e-323
0
0
0
0
0
0
0
0
0
0
0
0
0
0
0
0
0
0
0
0
0
0
0
0
0
0
0
0
0
0
0
0
0
0
0
0
0
0
0
0
0
0
0
0
0
0
0
0
0
0
0
0
0
0
0
0
0
0
0
0
0
0
0
0
0
0
0
0
0
0
0
0
0
0
0
0
0
0
0
0
0
0
0
0
0
0
0
0
0
0
0
0
0
0
0
0
0
0
0
0
0
0
0
0
0
0
0
0
0
0
0
0
0
0
0
0
0
0
0
0
0
0
0
0
0
0
0
0
0
0
0
0
0
1.790550574779511131184773e-48
9.779945401847771391483778e-46
2.794135654360183631930763e-43
2.975010647028561981812039e-41
1.803144785908151823968887e-39
7.565998482066859269307982e-38
2.379715477739599285073528e-36
5.65600836103101578527373e-35
1.097850978239555613681301e-33
1.855526405250805270017303e-32
3.222309882276817249023738e-31
5.916875869872603734901044e-30
1.569148671240161326313448e-28
2.346571299911211108982402e-27
8.96935779698127234778551e-23
1.188988899590470784889697e-22
1.438406749003284580246416e-22
1.709155255063509184550162e-22
2.018624413699260613869564e-22
2.375637492723928861200058e-22
2.78693350623482657633074e-22
3.256752487154101921930852e-22
3.787067303271303270216889e-22
4.381449781210058151383813e-22
5.045271239190138160801075e-22
5.776505990798344010124799e-22
6.566410532586847634795596e-22
7.438697394169371479110529e-22
8.492798561907748642763112e-22
9.841858534267767974281517e-22
1.136293143863770883872753e-21
1.265566432449302325261588e-21
1.356122246577059470571635e-21
1.431209621621017582116913e-21
1.515293856363563912168896e-21
1.582732989286952991191086e-21
1.597014331581727145226609e-21
1.596950537006913306291759e-21
1.59579537467948933810079e-21
1.592279485899115115626699e-21
1.584491921112062600390308e-21
1.570402020047548936572372e-21
1.547376519551005701204606e-21
1.511560266208231345746262e-21
1.456620249711687644081096e-21
1.370392770925632071108945e-21
1.233125781052358516693067e-21
1.033292367572387699630174e-21
8.09475330961585122200341e-22
6.359791082119493000365472e-22
5.274814316676130693606597e-22
4.477804340670502540273504e-22
3.710944695121754662059127e-22
2.98786502982610580060442e-22
2.431755924385989591591145e-22
1.968486935549246845860798e-22
1.476790844007156425094532e-22
1.171930087098667776104666e-22
1.144624718048735886942783e-22
1.199662861202337848827122e-22
1.639251609810452244331988e-22
3.750670633561246925651456e-22
1.192792233285391113823115e-21
3.942357165694412179447358e-21
1.211275482914912762577545e-20
3.350121021677252316625189e-20
8.196894974745752797507555e-20
1.739986227031654108194469e-19
3.142244857555177488384586e-19
4.794649766830814132078189e-19
6.315603459201713034870578e-19
7.482203527411579446186578e-19
8.269495942953266925033689e-19
8.655145687973284588559111e-19
8.148922039929596866340141e-19
1.420144785003819706963768e-19
1.374497921030664881918732e-21
1.114185735315320823606529e-24
4.965490428125998306371136e-29
1.784239281055233272465489e-33
4.003846936680837287758674e-38
6.029551252533836543925821e-43
8.164175913356649165094825e-48
9.002479426903740482374938e-53
5.481427821182511516033295e-58
3.114716262266438809260996e-63
2.041847081496501440521435e-68
1.124117899331003019726965e-73
4.236245742432783495004063e-79
1.816380655243494978376701e-84
7.895652969853536593037202e-90
2.469842164652107571026241e-95
7.397919003674246941101782e-101
2.446498086170909019105773e-106
6.712608592488689630223809e-112
1.37618417731796646888596e-117
3.362857692693319495174289e-123
9.145426377536730276378618e-129
1.972434125281185422089374e-134
4.882349179353489665016947e-140
1.246108876070062294225555e-145
1.768385372087485580892753e-149
2.109217926626610100129351e-150
2.430102990368283196029669e-151
3.048587663982269254333488e-152
3.706679514168824564747091e-153
4.438464818615146235763991e-154
5.260641467511852138441513e-155
6.182186595028934253350244e-156
7.228951057907704593105797e-157
8.435832625826097844502983e-158
9.860720882106174006366856e-159
1.162301966716120987889248e-159
1.401540752665157973214722e-160
1.783737734244320902641298e-161
2.538400853903781817508989e-162
4.334920267403860461598942e-163
9.123641903731606996786598e-164
2.253394462338579216514668e-164
6.059144485898059986098726e-165
1.681796640793370799039552e-165
4.687853903869703765901352e-166
1.295839921262673349008221e-166
3.532397898608638820429595e-167
9.471464249052055430746881e-168
2.494969363695236494201367e-168
6.452882596140174159799234e-169
1.638154709844105833491093e-169
4.081419436579607529514816e-170
9.979427714292762106070793e-171
2.394670177874755654597865e-171
5.639683324646253265659711e-172
1.303665773377775598313766e-172
2.958153882141699733365892e-173
6.589662031508490414514067e-174
1.441256332738001917742901e-174
3.095313323523551397032316e-175
6.528356316229421274779117e-176
1.352352251284708413188325e-176
2.751777881182386238511296e-177
5.500788119668838625277364e-178
1.080374296179383161399373e-178
2.08502051430368462486259e-179
3.95440569123963283029252e-180
7.37112736990381520456637e-181
1.350561327778471911475388e-181
2.432580108222198521154478e-182
4.307606273741811784981404e-183
7.500033716861089071208656e-184
1.284073658690371878234415e-184
2.162001972700406688106856e-185
3.58014293699188073070802e-186
5.831231323104619773371122e-187
9.342693206691017820928174e-188
1.472552947921969005662687e-188
2.283445701862139275766878e-189
3.48388779405645685485098e-190
5.230256022489229373615621e-191
7.72676219132682532217432e-192
1.123355799454106187811562e-192
1.607350503973516262725637e-193
2.263625262263538440820455e-194
3.137800338318200692331216e-195
4.281520407378845902156814e-196
5.751044818054080040930023e-197
7.604918743350926894412554e-198
9.900646936876751151931908e-199
1.269038612900806263153612e-199
1.601579496087027202333761e-200
1.990232194203698949661326e-201
2.435335629351553302892584e-202
2.934479279149873957553382e-203
3.482064643109242342577041e-204
4.069037352148223359266114e-205
4.682849565639092687350613e-206
5.307697431007241191315966e-207
5.925055171599340876765079e-208
6.514497741572230976670501e-209
7.054771172759429675371406e-210
7.525037915864264197962571e-211
7.906198185741183054045193e-212
8.182171733988955482437046e-213
8.34102067114074931883347e-214
8.375804328321361423087539e-215
8.285081030409083378155361e-216
8.073006361488001811695477e-217
7.749018679105448289073239e-218
7.327144910172638603383001e-219
6.824997514619730859481359e-220
6.262562127211227345598312e-221
5.660891433646284873098531e-222
5.040822880552890495553449e-223
4.421826486152965822932823e-224
3.821066758658905386251797e-225
3.252733302141562641667191e-226
2.727662476964369389114673e-227
2.253241766757124294153523e-228
1.833562842436431069772999e-229
1.469771102159994327807297e-230
1.160549751803106605614182e-231
9.026750259279218739856843e-233
6.915846416425350055412665e-234
5.21912060860205719098399e-235
3.879523787979041632437176e-236
2.84039531623504421558343e-237
2.048272802379386816458247e-238
1.454768781074448339193857e-239
1.017618485912837992557482e-240
7.010478586316473124978157e-242
4.75628611640307361970016e-243
3.177832418383869856882084e-244
2.090840631641220364757022e-245
1.354631295858399664265578e-246
8.641993176482288321806782e-248
5.428512757127331134377201e-249
3.357395415511307440758728e-250
2.044364924735158277933644e-251
1.225539453764349508457334e-252
7.232472546252099721767089e-254
4.201589221890592717759702e-255
2.402610406581607076209561e-256
1.352292753076952546655421e-257
7.491163511644339192651016e-259
4.084054566558237086702683e-260
2.191133906725756538482106e-261
1.156782555002082453040498e-262
6.009095857077601889566621e-264
3.071207211198821834072872e-265
1.544253137798198909307397e-266
7.638407633809069644969095e-268
3.716434315651939870195474e-269
1.778494083086979490696195e-270
8.370327401226750182062716e-272
3.873975739828826052053332e-273
1.763009944486260858726846e-274
7.888484892832204865469837e-276
3.47000015440778943150781e-277
1.500434455127185839772344e-278
6.376894391830815666837325e-280
2.663529453782263079830544e-281
1.093230235125974458666451e-282
4.408792722785780096780669e-284
1.746738726769102711433335e-285
6.797996321770232348051135e-287
2.598491007280207410354793e-288
9.754151411169822619875463e-290
3.59521115299582465397895e-291
1.300955725599514017259421e-292