# geometry NO_DATA 616
#  x  y  z
0.9837757512363678458200411 0.01568086083570491978678163 0.6323980125148179753935551
0.9918878756181839229100206 0.03278994540540609847756315 0.6404596518841876306993299
0.9918878756181839229100206 -0.001428223733996264108170315 0.6404596518841876306993299
0.988965958500526931551633 -0.003197229946674064009204397 0.6421631884472009943465309
0.9812381965794619853582503 0.01446248028106119146163344 0.6343263768944020775109038
0.988965958500526931551633 0.03212219050879644433038607 0.6421631884472009943465309
0.9831519568547566478855515 -0.01735826660140450672376033 0.6327095389517222168151989
0.9916098812039414456265263 -0.03377575123636784859559867 0.6406745603854262505194583
0.982434226122705034356386 -0.01790889225943857743228449 0.6334272696837738303443643
0.989790057279087198693901 -0.03432637689440191930412283 0.6418851940329586280853391
0.982434226122705034356386 0.01790889225943858437117839 0.6334272696837737193220619
0.989790057279087198693901 0.03432637689440191930412283 0.6418851940329586280853391
0.9831519568547566478855515 0.01735826660140451019320729 0.6327095389517221057928964
0.9916098812039415566488287 0.03377575123636784859559867 0.6406745603854261394971559
0.9753178268871829370567639 -0.0002491820317033250514228426 0.6244329910811139416892956
0.9749720269198141053834661 0.0004424179030345159416987011 0.6245296090167796743131134
0.9742542961877624918543006 0.0009930435610685866502228558 0.6252473397488311768199765
0.9738823654230799320430378 -0.000249182031703324997212734 0.6258684525452171687476266
1.033910240728443508118062 0.01551285187644608348778164 0.6321795185431127173103505
1.041955120364221665241189 0.03275642593822301190664703 0.6402243981788908744334776
1.041955120364221665241189 -0.001730722185330857074148092 0.6402243981788908744334776
1.032857294772439260555075 -0.01775323556740956293387157 0.6322803873773291671867014
1.04144545885858907929844 -0.03391024072844359832368255 0.6402916440683685816992465
1.024235507741551032268035 -0.03384299483896596738574658 0.640409271492736853481631
1.024235507741551032268035 0.03384299483896598126353439 0.640409271492736853481631
1.03285729477243948259968 0.01775323556740957681165938 0.6322803873773291671867014
1.04144545885858907929844 0.03391024072844360526257645 0.6402916440683685816992465
1.025322076642293911419301 -0.0005096615056326241066653182 0.6241682618520733027978054
1.024778792191922471843668 0.0005769073951102771623256071 0.6242018847968121564306898
1.016157005161034021512023 0.01568086083570492672567553 0.6323307689122197317033169
1.008078502580517010756012 0.03285718900800422420660496 0.6404260300828885643653621
1.008078502580517010756012 -0.001495467336594382247796919 0.6404260300828885643653621
1.083848373579375357067534 0.01563658617458236338437771 0.632303252841249108229249
1.091924186789687611920385 0.03281829308729117961052069 0.6403790660515613630821008
1.091924186789687611920385 -0.001545120738126453709126995 0.6403790660515613630821008
1.082725492363688868380223 -0.01775861430781908167908512 0.6322104521176470370846801
1.091347279394577096667263 -0.03384837357937548613096013 0.640317198902493278644954
1.074134638907334515778302 -0.03391024072844360526257645 0.6402243981788910964780825
1.074134638907334515778302 0.03391024072844360526257645 0.6402243981788909854557801
1.082725492363688868380223 0.01775861430781908167908512 0.6322104521176468150400751
1.091347279394577540756472 0.03384837357937548613096013 0.6403171989024931676226515
1.075226586548486906735889 -0.0005769073951102635013782338 0.6241965060564027556466726
1.074680612727910711257095 0.0005150402460421497907727684 0.6241655724818687689392505
1.06608975927155613661057 0.01551285187644607654888773 0.632179518543112828332653
1.058044879635777979487443 0.03275642593822300496775313 0.6402243981788908744334776
1.058044879635777979487443 -0.001730722185330860543595044 0.6402243981788909854557801
1.133749623692508645689259 0.01583619408699680000673915 0.6325018066843229869178344
1.141874811846254278435708 0.03291915111283882922066368 0.6406280489074090978007803
1.141874811846254278435708 -0.001246762938845219015684962 0.6406280489074090978007803
1.132770214348331361264854 -0.0175979972718841790046973 0.6323539239891559082806793
1.141361067804685713866775 -0.03374962369250868871040083 0.6405295411556753970572231
1.124228735835410164511927 -0.03384837357937548613096013 0.6403803622560347852399332
1.124228735835410386556532 0.03384837357937547919206622 0.6403803622560346742176307
1.132770214348331361264854 0.01759799727188416512690949 0.6323539239891559082806793
1.141361067804685713866775 0.03374962369250868177150693 0.6405295411556752860349206
1.125158770236154293087338 -0.0005150402460421575970284103 0.6243261895178036091635931
1.124693104933545573231868 0.0004162903591753487923463051 0.6242768145743702312699952
1.116151626420624598523546 0.01563658617458235644548381 0.632303252841249108229249
1.108075813210312121626089 0.03281829308729117267162678 0.6403790660515613630821008
1.108075813210312121626089 -0.001545120738126457395414382 0.6403790660515613630821008
1.177752686652214109130909 0.004855188510089283177029174 0.6271025018578748611020046
1.180017734708673993182515 -0.0003250923971696821493729268 0.6296926423115044579859045
1.176404067875175485369255 -0.00690224126982756473747127 0.638188521843422673640589
1.170525352985217093504389 -0.02842409644658350914570022 0.6440942609217112924113735
1.170525352985217093504389 0.01461961390692836926241682 0.6440942609217112924113735
1.177384103823031269442367 -0.005592354168455182863994857 0.6270590114258617342457569
1.168888224291113164809985 -0.02193392843795214514068803 0.6351396546679449750527624
1.165643140286797496685267 -0.03818852184342259870053482 0.6436790246318763175636946
1.168888224291113164809985 0.02193392843795216595736974 0.6351396546679449750527624
1.165643140286797496685267 0.03818852184342261257832263 0.6436790246318763175636946
1.177384103823031269442367 0.005592354168455199343867879 0.6270590114258617342457569
1.175119055766571385390762 -0.0004120732611962181881140599 0.624468870972232137361857
1.17475047293738854570222 0.0003250923971696987918762745 0.6244253805402190105056093
1.166254593405470441069838 0.01583619408699680694563305 0.6325060237823022513126148
1.158127296702735176125998 0.03291493401485968972597362 0.640630157456398618975868
1.158127296702735176125998 -0.001242545840866074967345778 0.640630157456398618975868
0.9338967980131602786286749 0.01467001536564980536392344 0.681771543002997804094889
0.9419483990065800060875745 0.03190014671214345953753622 0.6893882830257362925863163
0.9419483990065802281321794 -0.002560115980843871361094521 0.6893882830257362925863163
0.9403993689044957138278846 -0.001422334563668173693096186 0.6918217034681637400694854
0.9324671292500019692539581 0.01555440570599299354714873 0.6836434069363277465924966
0.9403993689044957138278846 0.03253114597565413823598846 0.6918217034681638510917878
0.9332990927025619498635933 -0.01736699063870204146065035 0.682735628022734908348923
0.9417008556819995712672267 -0.0338967980131603188742595 0.6901390653516639162035062
0.9328623235611512853893146 -0.01711359956186953024115383 0.6831723971641456838455042
0.9407079560602518153444862 -0.03364340693632780765476298 0.6915741601435830832045326
0.9328623235611512853893146 0.0171135995618695753439642 0.6831723971641455728232017
0.9407079560602518153444862 0.0336434069363278423492325 0.6915741601435830832045326
0.9332990927025619498635933 0.01736699063870208309401377 0.682735628022734908348923
0.9417008556819994602449242 0.03389679801316034662983512 0.6901390653516639162035062
0.9254950350337228792696465 -0.0001368592922083653048385271 0.6743681056740689072626083
0.9251448730477049853249127 0.0005634646798270304558081678 0.6745814083678780548325449
0.924708103906294320850634 0.0003100736029945225973383782 0.6750181775092888303291261
0.9246214967509012172541816 -0.0001368592922083632448543994 0.6752416439568903472334682
0.9888574135088364913670489 -0.03447143997668494774799797 0.6732928400349724729068157
0.9732928400349725173157367 -0.03447143997668494774799797 0.6889611810511306888571426
0.9732928400349725173157367 0.03447143997668494080910406 0.6889611810511306888571426
0.9888574135088364913670489 0.03447143997668494080910406 0.6732928400349724729068157
0.9888934269593853132462868 -0.003342293028957089850994322 0.6577642800116575427793464
0.9810931334971788597698605 0.01446248028106118105329259 0.6655285600233150633542323
0.9888934269593853132462868 0.0322672535910794588964734 0.6577642800116574317570439
0.9655285600233149967408508 0.01467001536564977587362435 0.6811969010394732793045591
0.9577642800116575871882674 0.03247478867566805371680516 0.6891009620439738636576976
0.9577642800116575871882674 -0.003134757944368490260172999 0.6891009620439738636576976
1.188224526635355937642657 0.006884280062620689449870426 0.6735509467292872809451865
1.194112263317677946616868 0.02844214003131027845849843 0.6794386834116090678747923
1.194112263317677946616868 -0.01467357990606892037543929 0.6794386834116090678747923
1.182327809349430935981218 -0.03822452663535625544399821 0.6676632100469654940155806
1.182327809349430935981218 0.03822452663535626932178602 0.6676632100469653829932781
1.176440072667108927007007 -0.01666666666666664561868849 0.6617754733646437070859747
1.170543355381183925345567 -0.0186777146344713068648602 0.6558877366823218091340664
1.170543355381183925345567 0.01465561869886202253643326 0.6558877366823218091340664
1.234484696213086651894741 0.01436394090715899934940225 0.6810306075738254971696506
1.242242348106543214925068 0.03218197045357950453192686 0.6887882594672820601999774
1.242242348106543214925068 -0.003454088639261492389015418 0.6887882594672820601999774
1.226572224820175360804342 -0.02270922284844342775578241 0.6754208619404220570459074
1.237351154804520181329508 -0.03448469621308716814844786 0.6850484290450129520877454
1.217663210046965538424502 -0.03822452663535625544399821 0.6794386834116092899193973
1.217663210046965538424502 0.03822452663535626932178602 0.6794386834116090678747923
1.226572224820175360804342 0.02270922284844343122522936 0.6754208619404218350013025
1.237351154804520181329508 0.03448469621308716814844786 0.6850484290450129520877454
1.223705766228741831369575 -0.004891193302022932981598657 0.6714030404692344911055102
1.220684488137853573874736 0.001151362879753836361909625 0.6695331252581000480716966
1.211775473364643307405686 0.006884280062620680776253046 0.6735509467292872809451865
1.20588773668232152047608 0.02844214003131027151960453 0.6794386834116089568524899
1.20588773668232152047608 -0.01467357990606892211016277 0.6794386834116090678747923
1.283868910180793854181047 0.01559551297174518492971718 0.6822621796384119585709982
1.291934455090396838272682 0.03279775648587259645472258 0.6903277245480149426626326
1.291934455090396838272682 -0.001606730542382213801702595 0.6903277245480148316403302
1.281874077437432646320303 -0.01835360639388122078186072 0.681338500589972362320168
1.290783092210643134833958 -0.03386891018079407622565213 0.68971193851572176747311
1.273272955680369022957166 -0.03448469621308714733176615 0.6887882594672821712222799
1.273272955680369245001771 0.03448469621308714039287224 0.6887882594672820601999774
1.281874077437432868364908 0.01835360639388119996517901 0.681338500589972362320168
1.290783092210643134833958 0.03386891018079406234786433 0.68971193851572176747311
1.274959895407583587711997 -0.001151362879753823351483555 0.6738887417126623313734513
1.274116425543976305334581 0.0005355768474607197193043673 0.6735808486965157992898412
1.265515303786912681971444 0.0143639409071589958799553 0.6810306075738257192142555
1.257757651893456340985722 0.03218197045357948371524515 0.6887882594672820601999774
1.257757651893456118941117 -0.003454088639261468536567623 0.6887882594672820601999774
1.326907553748962742545814 0.003152826458213040059647136 0.6762452727092505000427991
1.328318396718141114476452 -0.0003311405198560980062127967 0.6779872561982849266115636
1.322972319583092914996314 -0.01036101375024049350836997 0.6864861597915462576580126
1.316215399478866121540932 -0.03018050687512020130442991 0.6932430798957730511133946
1.316215399478866121540932 0.009458479374639221226583885 0.6932430798957730511133946
1.326474195065304506613302 -0.00401954382552986884402646 0.676143054545448096703808
1.31797529147204306454455 -0.02035506997234044768152472 0.6841063812912487884787538
1.313062573020653100996924 -0.03648615979154638810921796 0.6927075030483124118418914
1.317975291472042842499945 0.02035506997234044074263082 0.6841063812912487884787538
1.313062573020652878952319 0.03648615979154637423143015 0.6927075030483124118418914
1.326474195065304284568697 0.00401954382552986450721777 0.676143054545448096703808
1.325063352096125912638058 -0.0005355768474607303444856576 0.6744010710564134480904386
1.324629993412467454660941 0.0003311405198560943741355189 0.6742988528926111557737499
1.31613108981920601259219 0.01559551297174519880750498 0.6822621796384119585709982
1.308065544909603028500555 0.03279775648587260339361649 0.6903277245480149426626326
1.308065544909603028500555 -0.001606730542382207079649126 0.6903277245480148316403302
0.9365271825283861817368347 -0.006167380965936440292973764 0.7426945634943227236846042
0.9292217460227090164437413 0.01255507935604239372340274 0.7353891269886454473692083
0.9365271825283861817368347 0.03127753967802124335229053 0.7426945634943227236846042
0.9401557673839602280452254 -0.03396984586824641771940492 0.7240452311976303123586263
0.9313506677033075442651011 -0.0193589728568919344775523 0.7334064613586197545203049
0.9379464636487853113067104 -0.03538912698864550565591713 0.742058050959409687408197
0.9313506677033075442651011 0.01935897285689192406921144 0.7334064613586197545203049
0.9379464636487853113067104 0.03538912698864550565591713 0.7420580509594094653635921
0.9401557673839600060006205 0.03396984586824641771940492 0.7240452311976303123586263
0.9402361494385363949177759 -0.001748773495586784625099863 0.708015077065876630157959
0.9321406903180833314337406 0.01555440570599296579157311 0.7160301541317535267694439
0.9402361494385363949177759 0.03285758490757272054505478 0.708015077065876630157959
0.9233355906374308696982212 0.002055793655312162376835872 0.72539138429274285790882
0.9226259500772312494021321 -0.0006365125349130984011916667 0.7267375373878556255036187
1.336486159791546501907078 0.01036101375024033044436322 0.7270276804169069073680021
1.34324307989577329536246 0.03018050687512015620161954 0.7337846005211337008233841
1.34324307989577329536246 -0.009458479374639483169828758 0.7337846005211337008233841
1.329729239687319708451696 -0.03648615979154649219262652 0.7202707603126802249349225
1.329729239687319708451696 0.03648615979154648525373261 0.7202707603126802249349225
1.322972319583092914996314 -0.01666666666666668031315801 0.7135138402084534314795405
1.316215399478866121540932 -0.02387485395869400409130101 0.7067569201042266380241585
1.316215399478865899496327 0.009458479374639333983609824 0.7067569201042266380241585
1.384077524237104839244239 0.01517828485912374111843626 0.7318449515257903215115221
1.392038762118552597257803 0.03258914242956187368172039 0.7398061894072378574804816
1.392038762118552597257803 -0.002232572711314390577486133 0.7398061894072378574804816
1.378976189097899762714405 -0.02056368402865123637401901 0.7282319981941278719261845
1.388885935660339132624586 -0.03407752423710479899865433 0.737397553852796261431024
1.370270760312680469183988 -0.03648615979154643668147529 0.7337846005211337008233841
1.370270760312680469183988 0.03648615979154642280368748 0.7337846005211338118456865
1.378976189097899762714405 0.02056368402865122596567815 0.7282319981941278719261845
1.388885935660339132624586 0.03407752423710480593754824 0.7373975538527963724533265
1.374167777674665247289454 -0.003152826458213102943373141 0.7226793958671218209843801
1.372219268993672969259023 0.0007441909037714515996048137 0.7214750780899010784708025
1.363513840208453675728606 0.01036101375024033044436322 0.7270276804169070183903045
1.356756920104226882273224 0.03018050687512010069046831 0.7337846005211337008233841
1.356756920104226882273224 -0.00945847937463942592395405 0.7337846005211337008233841
1.426860584812337240379065 0.003019988501222988820649196 0.7261594036888858738620911
1.428195283782085711621335 -0.0003505905617259141718658477 0.7278446932203601615896105
1.422706643669112702710322 -0.01062668966422056215925807 0.7363533218345563735596215
1.415883304586391000512435 -0.03031334483211022348680963 0.7431766609172782978021132
1.415883304586391000512435 0.009059965503669087025229167 0.7431766609172782978021132
1.426313194079588786422619 -0.004114769966720354700540074 0.7259626035178630143462897
1.417804565465392352408003 -0.02043084607166109969988987 0.7337270412282876907994478
1.412863316085167797453437 -0.03635332183455632082402786 0.7424324700135067622852603
1.417804565465392352408003 0.02043084607166110663878378 0.7337270412282876907994478
1.412863316085168019498042 0.03635332183455633470181567 0.7424324700135067622852603
1.426313194079588786422619 0.00411476996672036077207224 0.7259626035178630143462897
1.424978495109840093135745 -0.0007441909037714513827643792 0.7242773139863887266187703
1.424431104377091417134693 0.0003505905617259203518182309 0.7240805138153658671029689
1.415922475762895205164682 0.01517828485912373938371278 0.731844951525790543556127
1.407961237881447669195722 0.03258914242956185980393258 0.7398061894072380795250865
1.407961237881447669195722 -0.002232572711314376699698325 0.7398061894072380795250865
0.920200859135668958188603 -0.02575896903719701938606512 0.79595982817286614618979
0.9161606873085351709917745 -0.0005059793581312862793125662 0.791919656345732470015264
0.9202008591356688471663006 0.02474701032093438307635225 0.7959598281728662572120925
0.9365271825283860707145323 -0.03538912698864549177812933 0.771916309517031717923885
0.9259564813441653052805691 -0.02730878333437782370940461 0.7845428043565645381818285
0.9267313884927557143811327 -0.04191965634573233123738589 0.7939040345175538693212047
0.9259564813441653052805691 0.02730878333437792432336622 0.784542804356564649204131
0.9267313884927557143811327 0.04191965634573240062632493 0.7939040345175542023881121
0.9365271825283860707145323 0.03538912698864552647259885 0.771916309517031717923885
0.9365271825283860707145323 -0.00616738096593642468046248 0.7573054365056771652930934
0.9292217460227087943991364 0.01255507935604242841787226 0.7646108730113543305861867
0.9365271825283860707145323 0.03127753967802125723007833 0.7573054365056771652930934
0.9186510448384881399874757 0.008586323012399095511160141 0.7772373678508872618664327
0.9153857801599447618912109 -0.002055793655312093855258571 0.7825584261847429168312829
1.436353321834556329150701 0.01062668966422050664810683 0.777293356330887030836152
1.443176660917278031348587 0.0303133448321102616507261 0.7841166954136090661009462
1.443176660917278031348587 -0.009059965503669265701747193 0.7841166954136087330340388
1.429529982751834626952814 -0.03635332183455642490743642 0.7704700172481652176159628
1.429529982751834626952814 0.03635332183455644572411813 0.7704700172481653286382652
1.422706643669112924754927 -0.0166666666666666525575824 0.763646678165443515418076
1.415883304586391000512435 -0.0242733678296641400273792 0.7568233390827218132201892
1.415883304586391000512435 0.009059965503669199782255106 0.7568233390827218132201892
1.483957250729001531297513 0.01625244539505579788318812 0.7825023053018594909602257
1.491978625364500654626454 0.03354302945739080776821339 0.7909404866972217229559305
1.491978625364500654626454 -0.001038138667279221759656704 0.7909404866972217229559305
1.481021695057808118534126 -0.02031057256355809845227434 0.7803977776621398021461573
1.490865022641753023791011 -0.03395725072900167978984243 0.790033994610279344250614
1.472376403026640634408295 -0.03635332183455642490743642 0.7860230811920840832129898
1.472376403026640634408295 0.03635332183455644572411813 0.7860230811920843052575947
1.481021695057808118534126 0.020310572563558122738403 0.7803977776621399131684598
1.490865022641753023791011 0.03395725072900168672873633 0.790033994610279344250614
1.474113923145056848085233 -0.00301998850122308162835516 0.7728660883537200598780714
1.472291970196611288201893 0.0006239173956683656757996048 0.7716680528009425277247146
1.463646678165443582031457 0.01062668966422050664810683 0.777293356330887030836152
1.456823339082721879833571 0.0303133448321102616507261 0.7841166954136090661009462
1.456823339082721879833571 -0.009059965503669265701747193 0.7841166954136087330340388
1.502046960138935682849137 -0.04662443696817265836873645 0.7986713971071084383623884
1.503016384408805139472065 -0.01594830942062246473267528 0.7973427942142168323158558
1.502046960138935460804532 0.01472781812692757104354957 0.7986713971071084383623884
1.501687781515913755470137 -0.04734279421421670741576548 0.7984642864713029641876574
1.501687781515913311380928 0.04734279421421686701032527 0.7984642864713031862322623
1.501328602892891384001928 0.04692857294260598111090843 0.7982571758354977120575313
1.502657205785783212093065 0.0162524453950559435999601 0.7971356835784113581411248
1.501328602892891606046533 -0.01442368215249424830137759 0.7982571758354974900129264
0.9359147325383920801300519 -0.006902320953929502213297642 0.8428170534923214995970397
0.9287317860307134909092497 0.01206511936404703645708825 0.8356341069846431324208424
0.9359147325383920801300519 0.03103255968202360895458192 0.8428170534923214995970397
0.920200859135668958188603 -0.04191965634573242838190055 0.8121205154814014059994065
0.9193034619890797509711433 -0.02755376333037567321282424 0.8216042356403896462779812
0.9296291831773029201713143 -0.03563410698464322678979954 0.8342307304799225775582272
0.9193034619890796399488408 0.02755376333037568709061205 0.8216042356403896462779812
0.9296291831773029201713143 0.03563410698464321291201173 0.8342307304799225775582272
0.9202008591356688471663006 0.04191965634573248389305178 0.812120515481401517021709
0.920200859135668958188603 -0.02575896903719712693892063 0.804040171827133720583447
0.9161606873085350599694721 -0.0005059793581313152275105716 0.8080803436542673967579731
0.9202008591356688471663006 0.02474701032093446287363214 0.804040171827133720583447
0.9152632901619457417297099 0.002300773651309912567336502 0.8175640638132556370365478
0.9184060648424903217090787 -0.008586323012399137144523564 0.8230076121451102011405965
1.534395602166974459379389 0.01455443768210471812418749 0.8312149500074113017689115
1.542197801083487362916458 0.03228337318241249198624843 0.8390233032652841815846045
1.542197801083487362916458 -0.003174497818203032319106516 0.8390233032652841815846045
1.525890313039842682840685 -0.03439560216697443162381376 0.8234127510908986202764481
1.525890313039842460796081 0.03439560216697442468491985 0.8234127510908986202764481
1.518088114123329557259012 -0.01666666666666668725205191 0.8156043978330256294384526
1.509582824996198002764913 -0.03155270725364820588731973 0.8078021989165128369236868
1.509582824996197780720308 0.001780626079685131537069798 0.8078021989165128369236868
1.575914107345723014219629 0.001217857936073483190314581 0.8253037505903503268100962
1.576370447124916696068908 -0.0003051783776862195094077557 0.8260652687472301858306878
1.569123832124189377168477 -0.01418805162376884226871354 0.8345511912694068001883352
1.561420877344267710284953 -0.03207257622650900447114353 0.8422755956347033334807861
1.561420877344267932329558 0.003696472978971344219845108 0.8422755956347033334807861
1.575242707003586595249089 -0.002560658620346619503832519 0.8249375286258999739885667
1.56675678448140986986914 -0.01892214690932707971127158 0.8323673366557955421995985
1.560181569822818747894644 -0.03455119126940684598503495 0.8412194811424225093787754
1.56675678448140986986914 0.01892214690932705889458987 0.8323673366557955421995985
1.560181569822819191983854 0.03455119126940683904614104 0.8412194811424222873341705
1.575242707003586595249089 0.002560658620346572232617799 0.8249375286258999739885667
1.574786367224392913399811 -0.001037622306586916858320291 0.8241760104690201149679751
1.574114966882256272384666 0.0003051783776861719671424922 0.823809788504569873168748
1.565629044360079769049321 0.01455443768210471985891097 0.8312395965344654413797798
1.557814522180039684684516 0.03225872665535828992533496 0.8390356265288112513900387
1.557814522180040128773726 -0.003149851291148829824512179 0.8390356265288111403677362
0.9401022505784883964707888 -0.001897251901592531724352608 0.89199950248008086362006
0.9320518715691228361919229 0.01543508639190272965779904 0.8839990049601619270802644
0.9401022505784883964707888 0.03276742468539797781268419 0.89199950248008086362006
0.9360707155251588584832234 -0.03563410698464307413413366 0.8717048225098019686996054
0.9297053200297211716929269 -0.01963311194480499982661925 0.8803709916565496396145818
0.938573250051327301335391 -0.03399900496016190765136145 0.8898547118155377688708541
0.9297053200297211716929269 0.01963311194480502411274792 0.8803709916565495285922793
0.938573250051327301335391 0.03399900496016193540693706 0.8898547118155377688708541
0.9360707155251588584832234 0.03563410698464310188970927 0.8717048225098018576773029
0.9359147325383921911523544 -0.006902320953929350424993494 0.8571829465076784559940393
0.9287317860307138239761571 0.01206511936404707288628124 0.8643658930153568231702366
0.9359147325383921911523544 0.03103255968202349793227945 0.8571829465076784559940393
0.9223663905352760261635581 0.0006656716268286049214414346 0.8730320621621047161298179
0.9231839415475164845048539 -0.002300773651309739528669773 0.8745152848011736868016897
1.584579777486589735602251 0.01438755580179906790050381 0.8809473337476433352222216
1.592289888743295245276954 0.03230066662172184632773053 0.888764333725170940780913
1.592289888743295023232349 -0.003525555018123723537148972 0.888764333725170940780913
1.576862529598076934078676 -0.03457977748658944833204387 0.8732372224909381586144264
1.576862529598077156123281 0.03457977748658946220983168 0.8732372224909381586144264
1.569152418341372090537789 -0.01666666666666665602702935 0.8654202225134104420334324
1.561435170452859289014214 -0.02960827413717936895665162 0.8577101112567052654256372
1.561435170452859511058818 0.003725059196153963914088791 0.8577101112567052654256372
1.625404372281178400072577 0.0004347246372069548921504567 0.8750303523560285512417067
1.625528229618494302499698 -0.0001870099625748881217671832 0.8753412196559194891065658
1.617719080831170774814609 -0.01543128761207217605755382 0.8837680579705402550416693
1.609786074706531566747003 -0.03253267891594580074610121 0.8918840289852699720896112
1.609786074706531344702398 0.001670103691801442993142279 0.8918840289852699720896112
1.624905962612323451210727 -0.001431543974917180370165504 0.8747189526497483047506876
1.616479124297702796297926 -0.0179112006790089588192938 0.8820062355319353564198082
1.609168385179234217474686 -0.0337680579705402911239176 0.8907444735528363688459308
1.616479124297702796297926 0.01791120067900896228874075 0.8820062355319353564198082
1.609168385179234217474686 0.0337680579705402911239176 0.8907444735528363688459308
1.624905962612323229166122 0.001431543974917185140655063 0.8747189526497483047506876
1.624782105275007326739001 -0.0008098093751353373833529181 0.8744080853498574779081309
1.624283695606151933787942 0.0001870099625748928922567421 0.8740966856435772314171118
1.615856857291531500919746 0.01438755580179906096160991 0.8813839685257641720639299
1.607928428645765794868794 0.03186403184360107193606737 0.8889826511142313592017672
1.607928428645765794868794 -0.003088920240002948711804942 0.8889826511142314702240697
0.94208382560444192677096 0.003031194440172611977157846 0.9109473688357305753982018
0.934167651208883675906236 -0.01666666666666664908813544 0.9185994228245280002198569
0.94208382560444192677096 -0.0303021388931607217609443 0.9109473688357305753982018
0.9257340220413073916816415 -0.0002005916684855471002375815 0.9259346137097930196091511
0.925216567269289358321771 0.0008343178755503926052189412 0.9256177506062606141767901
0.932902571110306610968621 -0.0179652465890567797357491 0.9168516945810218921053547
0.9414680354670599271571518 -0.03416765120888369533513895 0.909848930553419421585204
0.9250847320801123263578347 -0.001499171590875676175758091 0.9252853237485979542853443
0.9250847320801123263578347 0.001499171590875713038631956 0.9252853237485979542853443
0.932902571110306610968621 0.01796524658905681096077167 0.9168516945810218921053547
0.9414680354670599271571518 0.03416765120888371615182066 0.9098489305534195326075064
0.9402029553684828622195369 -0.001695842321603697154530632 0.9081012023099133134707017
0.9322532811491114346225118 0.01543508639190272792307557 0.9162024046198268267815479
0.9402029553684827511972344 0.03256601510540914345970265 0.9081012023099133134707017
0.9244354421189173720563304 0.0002005916684855842612670435 0.9246360337874028889615374
0.9245672773080944040202667 -0.0004642620468397361992510253 0.9249684606450655488529833
0.9888868315267905773069401 -0.003372100620669452736288818 0.9422589321474597046091048
0.9810550175422054763885171 0.0144790970075837788916262 0.9345178642949196756717356
0.9888868315267905773069401 0.03233029463583698970285951 0.9422589321474599266537098
0.9733139496896653364288454 -0.03451786429491988245077394 0.9266907037631041399450282
0.9733139496896653364288454 0.03451786429491990326745565 0.9266907037631042509673307
0.9577410678525400955507507 0.003381407526208793454941537 0.9111224753787485752809516
0.9654821357050800134658175 -0.01446979010204442472886655 0.9189496359105639999853565
0.9577410678525400955507507 -0.03232098773029765115261114 0.9111224753787485752809516