# geometry NO_DATA 800
#  x  y  z
0.9429374020174989823317446 0.007624412104996199784912037 0.5146870100874969544690885
0.9358748040349978980501078 -0.01666666666666666296592325 0.5217496080699969285277007
0.9429374020174989823317446 -0.02570892122833712961638142 0.5146870100874969544690885
0.9217496080699953964199267 -0.01158372526333840621393101 0.5358748040349978758456473
0.91468701008749386804908 -0.03079186263166982379102521 0.5429374020174988491049817
0.91468701008749386804908 0.007624412104993012230524929 0.5429374020174988491049817
0.9288122060524968137684709 -0.0358748040349980840124644 0.5146870100874958442460638
0.9146870100874944231605923 -0.0358748040349980840124644 0.5288122060524967915640104
0.9146870100874943121382898 0.03587480403499809095135831 0.5288122060524969025863129
0.9288122060524968137684709 0.03587480403499809095135831 0.5146870100874958442460638
0.9921474606515545691109992 0.002884763909328793077269104 0.510737303257774111209244
0.9842949213031091382219984 -0.0166666666666666664353702 0.5185898426062189869867325
0.9921474606515545691109992 -0.03044856942400454846708868 0.510737303257774111209244
0.9746908526189432819819558 -0.002541470701665057320417507 0.5272323233206083203938874
0.9729393232832228566309141 0.0009615879697758827199249865 0.5280222646865528890458563
0.9764423819546639293776025 -0.03429492130310921038649496 0.5107373032577737781423366
0.9658767253007219943938821 -0.02016972533810760387362748 0.5209596667040528039649416
0.9597757152879973219228305 -0.03429492130310921038649496 0.5123171859896631374908793
0.9668383132704981841598624 0.02016972533810761081252139 0.519379783972163222571794
0.9580241859522768965717887 0.03587480403499839626269008 0.5131071273556077061428482
0.9764423819546639293776025 0.03429492130310922426428277 0.5107373032577738891646391
0.9570625979825007068058085 0.007624412104996506830967284 0.5146870100874971765136934
0.9641251959650016800651429 -0.01158372526333522126162912 0.5217496080699973726169105
0.9570625979825007068058085 -0.03079186263166694415005509 0.5146870100874971765136934
1.042061418192411936800568 0.002368509154473107461424952 0.5103070909620609496570864
1.034122836384824051236819 -0.01666666666666666296592325 0.5182456727696485021539274
1.042061418192411936800568 -0.03096482417886022714403893 0.5103070909620609496570864
1.025308709066602652626443 -0.0009615879697760233409467578 0.5262702970363787313701209
1.024433163555969139579815 0.0007895030514908065117155034 0.526356339495521297067171
1.026184254577236609762281 -0.03412283638482413450354613 0.5103070909620609496570864
1.016580624207524152780024 -0.01841775768793349823959637 0.5185038001470764212896825
1.009517587910569780262904 -0.03412283638482414144244004 0.5104791758803463030957914
1.0173701272590149891073 0.01841775768793350170904333 0.5183317152287911788732799
1.008642042399936489260881 0.03429492130310936998105475 0.5105652183394888687928415
1.026184254577236609762281 0.03412283638482414838133394 0.5103070909620610606793889
1.007852539348445208844396 0.00288476390932893705931761 0.5107373032577742222315464
1.015705078696890639733397 -0.01474349072711375954747304 0.5185898426062189869867325
1.007852539348445208844396 -0.03237174536355644921536978 0.5107373032577742222315464
1.092139075997315744714911 0.00283445598389517414844585 0.5106953799865794341172887
1.084278151994631622656584 -0.01666666666666666990481716 0.5185563039892632231087077
1.092139075997315744714911 -0.0304988773494381665285502 0.5106953799865793230949862
1.07555006713555290076556 -0.0007895030514907700825225079 0.5263395701870434706393098
1.074682906279158522977468 0.000944818661298172518536731 0.5262619123821398181561904
1.076417227991947722642863 -0.03427815199463150885872409 0.5106953799865794341172887
1.066744324471570415369115 -0.01840098837945560936169009 0.5183233305745522656593494
1.059750561325281115188091 -0.03427815199463150885872409 0.5105400643767721291510497
1.067689143132869000751839 0.01840098837945561283113705 0.5184786461843596816478907
1.058883400468886515355393 0.03412283638482410674797052 0.5104624065718684766679303
1.076417227991947722642863 0.03427815199463151579761799 0.5106953799865794341172887
1.057938581807587929972669 0.002368509154473066261742398 0.5103070909620609496570864
1.065877163615176037581023 -0.01508766056368436928036836 0.5182456727696485021539274
1.057938581807587929972669 -0.03254383028184179571518087 0.5103070909620609496570864
1.142502806203511855898114 0.005016837221072798641552382 0.5125140310175606561671202
1.13500561240702380061407 -0.01666666666666666296592325 0.5200112248140482673619545
1.142502806203511855898114 -0.02831649611226052382084717 0.5125140310175606561671202
1.126199869743041759306834 -0.0009448186612981178747472377 0.5271446884043397007602039
1.124891320875547329194433 0.001672279073690711341873549 0.5267809581981433009190141
1.127508418610536633508445 -0.03500561240702404486313526 0.5125140310175609892340276
1.117030396872862763046896 -0.01928376440165549890459751 0.518920034195459511927595
1.110841751943870026053673 -0.03500561240702404486313526 0.511786570605168411596253
1.118702675946554148112 0.01928376440165549543515056 0.519647494607852422632277
1.109533203076375595941272 0.03427815199463144640867895 0.5114228403989722337996682
1.127508418610536633508445 0.03500561240702404486313526 0.5125140310175609892340276
1.107860924002684210876168 0.002834455983895115167847667 0.5106953799865793230949862
1.1157218480053685549791 -0.01477702934406966914226977 0.5185563039892631120864053
1.107860924002684210876168 -0.03238851467203445605447243 0.5106953799865793230949862
1.194796984062369116230684 0.01878190437421684705343594 0.5239849203118472908968783
1.189593968124738498914894 -0.01666666666666666990481716 0.529187936249477575145761
1.194796984062369116230684 -0.01455142895911648928675142 0.5239849203118472908968783
1.180424495254559946744166 -0.001672279073690574298718947 0.5320967743282506434709944
1.176458038322011789844623 0.006260634791405447416301477 0.5298025964693932055027403
1.184390952187109213866734 -0.03959396812473878202176536 0.5239849203118482900976005
1.168960844525523734560579 -0.02459958053176268533146498 0.5223054026729055943079061
1.167724285520442606411962 -0.03959396812473877508287146 0.5193965645941337472279997
1.175221479316930661696006 0.02459958053176268880091193 0.5268937583906212474005315
1.163757828587894227467814 0.03500561240702390608525718 0.5171023867352763092597456
1.184390952187109213866734 0.03959396812473878202176536 0.5239849203118482900976005
1.157497193796487966466202 0.005016837221072658128950827 0.5125140310175606561671202
1.164994387592975799705641 -0.01332210851928457631676572 0.520011224814048156339652
1.157497193796487744421597 -0.0316610542596418159666527 0.5125140310175606561671202
1.226015079688156372839103 -0.01878190437421266983930579 0.5447969840623689830039211
1.220812063750524645300288 0.004145397083858822981361492 0.5395939681247379215989213
1.226015079688156372839103 0.02707269854193032621036963 0.5447969840623688719816187
1.215609047812893805939893 -0.03959396812473817139910182 0.534390952187107970416946
1.215609047812893805939893 0.03959396812473816446020791 0.534390952187107970416946
1.205203015937631016996079 0.01878190437421622949187849 0.523984920311846957829971
1.210406031875261856356474 -0.004145397083855273737129643 0.5291879362494770200342487
1.205203015937630794951474 -0.02707269854192677349669083 0.523984920311846957829971
0.8924587842516374935897261 0.004752705509825667223866574 0.5622939212581880008556823
0.8849175685032749649749917 -0.01666666666666666296592325 0.5698351370065501964035093
0.8924587842516374935897261 -0.02858062782350766911632078 0.5622939212581880008556823
0.8698351370065502408124303 -0.01349819632678303168993317 0.5849175685032751426106756
0.8622939212581878232199983 -0.03174909816339149121189322 0.5924587842516375602031076
0.8622939212581878232199983 0.004752705509825420893132986 0.5924587842516375602031076
0.8773763527549125473825598 -0.03491756850327511901843636 0.5622939212581878898333798
0.8622939212581878232199983 -0.03491756850327511207954245 0.5773763527549127250182437
0.8622939212581878232199983 0.03491756850327512595733026 0.5773763527549126139959412
0.8773763527549125473825598 0.03491756850327512595733026 0.5622939212581878898333798
0.9277396742368849702486955 0.0003964070704424533988369239 0.5726567328335574469377889
0.9266671424212742369519447 -0.00254147070166377969657745 0.5741256717196105974210241
0.9246042894854715754604513 -0.001584235169941703748330841 0.5761885246554133699348199
0.9236139683652795362434063 0.0003964070704424501462304065 0.5767824387051629919653806
0.9185320126231621973289521 -0.01960454443877289107400763 0.565990541921498446775729
0.912541946456271846344066 -0.03587480403499711950621176 0.5574590050529437679216471
0.9160727526169170076286719 -0.01864730890705081772784624 0.5692412229568005743729486
0.9089279439389970072227243 -0.03372974040377577087390648 0.5605121791089389127193954
0.9164691596873595358374587 0.01864730890705083160563404 0.5680533948573012192895249
0.9079376228188049680056793 0.03491756850327505656839122 0.561106093158688534749956
0.9206770762543838859670586 0.01960454443877291189068934 0.5655941348510560295892446
0.9114694146406612240696177 0.03372974040377578475169429 0.5589279439389969184048823
0.921749608069994508241507 -0.01666666666666665602702935 0.564125195965002768083707
0.9146870100874934239598701 -0.02570892122834127907493595 0.5570625979825013507351628
0.9146870100874934239598701 0.007624412104992057265251404 0.5570625979825013507351628
0.9075412157483625508191949 0.004752705509825596100204059 0.5622939212581880008556823
0.9150824314967249684116268 -0.01349819632678278535919958 0.5698351370065501964035093
0.9075412157483624397968924 -0.03174909816339117202277365 0.5622939212581880008556823
1.241901247207347624978979 0.001407483244085819869967358 0.5595062360367382137127379
1.233802494414695249957958 -0.0166666666666666594964763 0.5676049888293905887337587
1.241901247207347847023584 -0.0319258500892475038934748 0.5595062360367382137127379
1.225299972324999320250072 -0.0003383775127244510608562345 0.575638349837724216939705
1.224896203027956209652416 0.000469161081361896118747945 0.5755729580534054701246305
1.224176961686908704507459 -0.02339646253943178724754581 0.5637709298116460043814868
1.235640612415943806468022 -0.03380249441469521110015251 0.559037074955376245277705
1.221935074388616815355135 -0.0070681733854895791371864 0.5722734519013414900001635
1.221935074388616815355135 0.007068173385489593882335946 0.572273451901341601022466
1.224176961686908704507459 0.02339646253943179765588667 0.5637709298116460043814868
1.235640612415943806468022 0.03380249441469521803904641 0.559037074955376245277705
1.226015079688157261017523 -0.01878190437421107389370789 0.5552030159376315499031307
1.220812063750526199612523 0.004145397083858831654978871 0.5604060318752633884642478
1.226015079688157261017523 0.02707269854192873720366563 0.5552030159376315499031307
1.218570176452234310460199 0.0003383775127244666733675182 0.5689085539649589851052269
1.221531305091573704757479 -0.006260634791403232174422655 0.5722080601170228542073914
1.292108029685378411954844 0.002648178112270137361111688 0.5605401484268917045028502
1.284216059370756779500766 -0.01666666666666666296592325 0.5684321187415133369569276
1.292108029685378411954844 -0.03068515522106320114748002 0.5605401484268917045028502
1.275648145496742547067015 -0.0004691610813618921071999068 0.5761173065781043378663639
1.274972201937349947087341 0.0008827260374233557738837819 0.5759105241000735952994205
1.276324089056135147046689 -0.03421605937075666847846378 0.5605401484268918155251527
1.26687344914469757206632 -0.01801855378545190108918739 0.5678117713074213313007021
1.259657422389468761636522 -0.03421605937075666153956988 0.5601265834708304414135682
1.267756175182120914612938 0.0180185537854519219058691 0.5682253362634825943899841
1.258981478830075939612243 0.03380249441469523885572812 0.5599198009927995878243223
1.276324089056135147046689 0.03421605937075667541735768 0.5605401484268917045028502
1.258098752792652597065626 0.001407483244085842855053414 0.5595062360367382137127379
1.266197505585304972086647 -0.0157283445039427226264106 0.5676049888293905887337587
1.258098752792652597065626 -0.03286417225197130198566242 0.5595062360367382137127379
1.343348414628254383629269 0.01009048776952517836869028 0.5667420731412708967411618
1.336696829256508234351486 -0.01666666666666665602702935 0.5733936585130167129520373
1.343348414628254383629269 -0.02324284556380815450205013 0.5667420731412708967411618
1.327922132904463037306186 -0.0008827260374233199952120899 0.5788048589418866018974086
1.32579902192416398953867 0.003363495923175029243129552 0.5775644739990107856542068
1.330045243884762751207518 -0.03669682925650834259823085 0.5667420731412711187857667
1.317907051609542357084592 -0.02091288862726501177058402 0.5696725036843891532001294
1.313378577218095921708141 -0.03669682925650835647601866 0.5642613032555193752770606
1.321270547532717554162218 0.02091288862726502564837183 0.572153273570141007731138
1.311255466237796873940624 0.03421605937075666847846378 0.5630209183126435590338588
1.330045243884762751207518 0.03669682925650835647601866 0.5667420731412711187857667
1.307891970314621454818393 0.002648178112270129121175177 0.5605401484268917045028502
1.315783940629243087272471 -0.01490121459181987031983319 0.5684321187415133369569276
1.307891970314621676862998 -0.03245060729590987236292676 0.5605401484268917045028502
1.383276981615780387713244 -0.01007143301247367429829271 0.593348414628254161584664
1.376615868865509018093007 0.009958729577367967170098417 0.5866968292565083453737884
1.383276981615780387713244 0.02998889216720960343431912 0.593348414628254161584664
1.369964283493763312904434 -0.03669682925650830096486743 0.5800452438847625291629129
1.369964283493763534949039 0.03669682925650830790376133 0.5800452438847625291629129
1.356651585371746238095625 0.0100904877695251332658799 0.5667420731412708967411618
1.363303170743491943284198 -0.00993967482031650820251123 0.5733936585130167129520373
1.356651585371746238095625 -0.02996983741015814620145541 0.5667420731412708967411618
0.8430678250973204779228354 0.008406950583922823128091295 0.6153391254866023007963349
0.8361356501946409780501313 -0.01666666666666667337426411 0.622271300389282022713644
0.8430678250973204779228354 -0.02492638274941051668154302 0.6153391254866023007963349
0.8222713003892818672824205 -0.01106203294405152560975214 0.6361356501946411334813547
0.8153391254866022563874139 -0.03053101647202594720598157 0.6430678250973205223317564
0.8153391254866023674097164 0.00840695058392290292537119 0.6430678250973205223317564
0.8292034752919615891997296 -0.03613565019464108629687615 0.6153391254866025228409399
0.8153391254866024784320189 -0.03613565019464109323577006 0.6292034752919615225863481
0.8153391254866023674097164 0.03613565019464108629687615 0.6292034752919615225863481
0.8292034752919615891997296 0.03613565019464108629687615 0.6153391254866024118186374
0.8767858295123074352517278 0.0004031886847322659669229372 0.6236173591724243348011214
0.8761953062697026561878033 -0.001584235169941696809436937 0.6246110710997612169848026
0.8740020302540782992650747 -0.002802316861307328852565002 0.626804347115385795952136
0.8723992774810584993616658 0.0004031886847322673221756528 0.6280039112036732706911835
0.8680635672787357925983542 -0.01865409052134064590844353 0.616479332108794242373051
0.8611128747729781540698468 -0.0349175685032750218739217 0.6079444044330948315746355
0.8654671025783789994889617 -0.01987217221270627665052899 0.6210717363009938818407818
0.8589381163604317137583166 -0.03373652201806562334063244 0.6117404332217393214676804
0.8658702912631112136310207 0.01987217221270625236440033 0.618672608124418710318082
0.8573353635874119138549077 0.0361356501946406422076663 0.6129399973100269072290303
0.8692446137639452397039008 0.01865409052134061468342097 0.6160761434240619172086895
0.8605223515303734860282248 0.03373652201806560946284463 0.6089381163604318247806191
0.8698351370065499077455229 -0.01666666666666668378260496 0.6150824314967249240027058
0.8622939212581878232199983 -0.02858062782350803687769769 0.6075412157483625064102739
0.8622939212581878232199983 0.004752705509825300329851405 0.6075412157483625064102739
0.8569321749026795886905461 0.008406950583922375569434493 0.61533912548660207875173
0.8638643498053590885632502 -0.01106203294405160887647899 0.6222713003892814676021317
0.8569321749026795886905461 -0.03053101647202558291405161 0.61533912548660207875173
1.39196438439997205449572 0.001798694041627770879090975 0.6098343096416559694361581
1.383928768799943975764677 -0.01666666666666666296592325 0.6178637314207857667014423
1.39196438439997205449572 -0.03153463929170555873904291 0.6098343096416559694361581
1.375429990430102833443016 -0.0003308900730160105807184379 0.6257608805031183996092636
1.374966827660289547807793 0.0005954354666103363682982952 0.6256286078063212352518008
1.378614430345138863742704 -0.02058740648697813049872174 0.6153017322231213448446852
1.388610415855322743894362 -0.03392876879994366490223001 0.6092326803541472379777133
1.373469620519947032022401 -0.004251629893327476053532799 0.6238005105929627092109513
1.373469620519947032022401 0.00425162989332747952297975 0.6238005105929627092109513
1.378614430345139085787309 0.02058740648697813396816869 0.6153017322231213448446852
1.388610415855322743894362 0.03392876879994366490223001 0.6092326803541472379777133
1.38329607740051763187239 -0.01003324144299983303185719 0.6066706811564828161209562
1.37665406043498306232209 0.009958729577367967170098417 0.6133413623129656544463728
1.38329607740051763187239 0.02995070059773576390260708 0.6066706811564828161209562
1.371509250609791452646391 0.0003308900730160148633170192 0.6218401406828069077903365
1.373006457750133968431783 -0.003325304353701128996095848 0.623668237896165433831186
1.442710950520170065658476 0.006265703121020999716295208 0.613554752600850905608354
1.435421901040340175725873 -0.01666666666666665602702935 0.6208438020806807955409568
1.442710950520170065658476 -0.02706763021231232968499825 0.613554752600850905608354
1.426786721290164594577732 -0.000603692833683817800874416 0.6273904141238488829657172
1.425440591019819347451403 0.002088567707007008000807957 0.6266479766871874135247822
1.428126370308288928256957 -0.03542190104034032005486665 0.6135482713486293260274351
1.417409104103328099100167 -0.01935892720735748334659476 0.6186144262245207858796903
1.41145970364162209875758 -0.03542190104034032005486665 0.612061332929131118874011
1.419491190558113347108815 0.01935892720735749722438257 0.620094883391797524474498
1.410113573371276851631251 0.03393702616701715912839177 0.6113188954924694273884711
1.428126370308288928256957 0.03542190104034032699376056 0.6135482713486293260274351
1.408031486916491381577998 0.001806951408701268357859249 0.6098384383251926887936634
1.416062973832982629929234 -0.01546340809164922260043884 0.6178719887878593164387553
1.408031486916491381577998 -0.03273376759199971702818388 0.6098384383251926887936634
1.486775495982804784489417 -0.005935454537365424457218133 0.6427109505201702432941602
1.479321322211147204939152 0.01281977983630824130534265 0.6354219010403403533615574
1.486775495982804784489417 0.03157501420998189839428605 0.6427109505201702432941602
1.47203227273131731500655 -0.03542190104034032005486665 0.6281328515605105744512571
1.472032272731317092961945 0.03542190104034032699376056 0.6281328515605104634289546
1.457289049479829623479077 0.006265703121020997981571732 0.613554752600850905608354
1.46457809895965951341168 -0.01248953125265265737264819 0.6208438020806807955409568
1.457289049479829623479077 -0.0312447656263263214004855 0.613554752600850905608354
0.8281503178089756334046001 0.0006960018953363073922896431 0.6725456840863603957814121
0.827097160325990010676378 -0.002802316861307413854015325 0.6742948434646822697402513
0.8180586704573393763695321 -0.01527466287599406336017438 0.6840293352286694883446216
0.8100733380716742537686059 -0.03263733143799703306786597 0.6920146676143348329901528
0.8100733380716742537686059 0.002088005686008889867644189 0.6920146676143348329901528
0.8191118279403248880754518 -0.02016498542331038312802605 0.6663095110790171471393251
0.8132328105206308999086673 -0.03613565019464076710775657 0.6576281767980157733077817
0.810073338071674031724001 -0.03402933522866961879582703 0.6760440028430043657436954
0.810073338071674031724001 0.03402933522866963267361484 0.6760440028430043657436954
0.8212181429062962445541984 0.02016498542331040394470776 0.6656135091836807848864055
0.8121796530376453882027477 0.03402933522866963267361484 0.6593773361763376472666209
0.8222713003892816452378156 -0.01666666666666665602702935 0.6638643498053589109275663
0.8153391254866022563874139 -0.02492638274941075260393575 0.6569321749026795220771646
0.8153391254866022563874139 0.008406950583922588940422038 0.6569321749026795220771646
1.491892624058684280186071 0.001718596529574279796817593 0.6598259724708898099621024
1.483785248117368782416747 -0.01666666666666667337426411 0.6677519223234714695891512
1.491892624058684280186071 -0.0316147368037590567602102 0.6598259724708898099621024
1.475349155245500032407335 -0.0002055190770709339805749627 0.6755546743225708805624663
1.475020438314947002211852 0.000451914784035484684999312 0.6754314764690887429310351
1.480933428838771215296788 -0.01852341839350326799240598 0.6661902055872838124273017
1.489969180643505142214167 -0.0337852481173688337645622 0.6591926315981204709260055
1.474420779382081825303885 -0.00206227080390752924923814 0.6746262984591526734590161
1.474420779382081825303885 0.002062270803907513636726856 0.6746262984591526734590161
1.480933428838771215296788 0.01852341839350325758406512 0.6661902055872838124273017
1.489969180643505142214167 0.03378524811736882682566829 0.6591926315981204709260055
1.487117361364907575094207 -0.005251723773159537936305874 0.6576309148619327027418535
1.480005052975352786148733 0.01281977983630822916227832 0.665261829723865494301549
1.487117361364907575094207 0.03089128344577599799558598 0.6576309148619327027418535
1.47349240351866339615583 0.0002055190770709185849041134 0.6736979225957343553332635
1.474092062451528573063797 -0.001404836942801110204193105 0.67450310060567031378298
1.54352583085441619203948 0.01115498512649719387024305 0.6676291542720808047661762
1.537051661708832561714644 -0.01666666666666667684371106 0.6741033234176647681579198
1.54352583085441619203948 -0.0221783482068361355310504 0.6676291542720809157884787
1.528371869685425821216995 -0.0006929173801466971408316575 0.679064787065572272872771
1.526166246807602933088788 0.003718328375499041927448873 0.6775520815678961472627861
1.53031405425441846546164 -0.03705166170883240212008403 0.667365715963250893949521
1.518179372164343066131664 -0.02107791242231242534455049 0.6695056304172588568235369
1.513647387587751858006868 -0.03705166170883240212008403 0.664280728460521108225123
1.521634262231011947008597 0.02107791242231239758897487 0.6723271796111585096866747
1.511441764709928969878661 0.03402625071348000518334231 0.6627680229628449826151382
1.53031405425441846546164 0.03705166170883239518119012 0.6673657159632507829272186
1.507986874643260089001728 0.001959599125685458805012917 0.6599464737689453297520004
1.515973749286519955958852 -0.01539998492112789642283222 0.6679929249195827312135521
1.507986874643259866957123 -0.0327595689679412299666339 0.6599464737689453297520004
1.582370845727919084211521 -0.01115498512649719387024305 0.6935258308544162142439404
1.57589667658233523184208 0.009230009915668536610300343 0.6870516617088322508521969
1.582370845727919084211521 0.02961500495783426362139679 0.6935258308544162142439404
1.569422507436751601517244 -0.03705166170883239518119012 0.6805774925632486205273608
1.569422507436751157428034 0.03705166170883239518119012 0.6805774925632485095050583
1.556474169145583674733757 0.01115498512649719733969 0.6676291542720809157884787
1.562948338291167527103198 -0.009230009915668531406129915 0.6741033234176647681579198
1.556474169145583674733757 -0.02961500495783426015194983 0.6676291542720811378330836
0.8258949221580224042682516 0.0003978405253725029338575381 0.724502918367349701966873
0.8257458414730406426329523 -0.0006960018953362712883572994 0.7250498395777041915621908
0.8174623469495803096407371 -0.01587098715158448761219923 0.733731173858705787438339
0.8093279331111018493061238 -0.03293549434362366690187685 0.7418655869293528937191695
0.8093279331111019603284262 0.001193520040454696231127518 0.7418655869293528937191695
0.8176114284023935363521218 -0.01776050908737544786752949 0.7169154265070571963036627
0.8097751767017103974310999 -0.03402933522866960491803923 0.7083831729110375841074188
0.8093279338789334254045116 -0.03373117385870585266394173 0.7255967607880586811575085
0.8093279338789332033599067 0.03373117385870584572504782 0.725596760788058792179811
0.8179095897723573926896279 0.01776050908737543398974168 0.7165175859816846903882492
0.8096260960167285247734981 0.03373117385870584572504782 0.708930094121392184725039
0.8180586704573392653472297 -0.01666666666666667684371106 0.7159706647713302007929315
0.8100733380716742537686059 -0.03124532764732448897326833 0.7079853323856651892143077
0.8100733380716742537686059 0.002088005686008851703727718 0.7079853323856651892143077
1.592500587790399046994594 0.005003526742394623534615494 0.7125029389519955680398766
1.585001175580798005171346 -0.01666666666666665602702935 0.7200023511615964988408223
1.592500587790399046994594 -0.0283298065909387067340397 0.7125029389519955680398766
1.576453058963315223550694 -0.0004295665682990662125224912 0.7268826255316145346085932
1.575404354555433261708686 0.00166784224746489113597181 0.7262634876920316395754185
1.578589761893816945104163 -0.02205283728963058909045003 0.7156414236026497066589513
1.588782259414899922234099 -0.03500117558079819668481747 0.7108350967045307111646935
1.573759973651833288244006 -0.005815737191263001606977845 0.7241895402201325993019054
1.573759973651833066199401 0.005815737191263038903532578 0.7241895402201325993019054
1.578589761893816945104163 0.02205283728963060990713174 0.7156414236026495956366489
1.588782259414899700189494 0.03500117558079821056260528 0.710835096704530600142391
1.582370845727919084211521 -0.0111549851264971834619022 0.7064741691455839189828225
1.57589667658233523184208 0.009230009915668548753364675 0.7129483382911676603299611
1.582370845727918862166916 0.02961500495783427402973764 0.7064741691455838079605201
1.571066888340351574981923 0.0004295665682991032380266816 0.7214964549086505529729152
1.572711269243951548446603 -0.003718328375499044963214956 0.7235704023805495932464282
1.637497061048004187711058 -0.005003526742394607054742472 0.7425005877903991802213568
1.629997648838403367932415 0.0133309821717369370724926 0.7350011755807981383981087
1.637497061048004187711058 0.03166549108586846905666334 0.7425005877903991802213568
1.622498236628802548153772 -0.03500117558079819668481747 0.727501763371197207597163
1.622498236628802548153772 0.03500117558079821056260528 0.727501763371197207597163
1.607499412209600908596485 0.005003526742394623534615494 0.7125029389519955680398766
1.614998824419201728375128 -0.01333098217173690931691699 0.7200023511615963878185198
1.607499412209600908596485 -0.03166549108586845517887554 0.7125029389519955680398766
0.8255711956491422753856568 0.0003467163900576755632826353 0.7747755207409154909470317
0.8255456351171144291356541 -0.0003978374541134037335396445 0.775147797663001014711881
0.8173564592755192537154585 -0.01598051422907676571982805 0.7836800497233911144689955
0.8091928439659521465898706 -0.03299389728580109926170394 0.7918400248616955794389582
0.8091928439659521465898706 0.00103286882764755155901526 0.7918400248616955794389582
0.8173856619925611299848356 -0.01741122051083773478175054 0.766987824538447826583365
0.8092768102217401393616569 -0.03373117078744675145784981 0.7584811330100855730762532
0.8091964861509661766092449 -0.03368004972339098956890524 0.775520076598837815318177
0.8091964861509661766092449 0.03368004972339100344669305 0.775520076598837815318177
0.8174367833462934385124754 0.0174112205108377590678792 0.7666411061346388722270717
0.8092512496897122931116542 0.03368004972339100344669305 0.7588534099321710968411026
0.8174623438783212847624782 -0.01666666666666665602702935 0.7662688292125532374399199
0.8093279315754724478892967 -0.03213981636413772158267221 0.7581344146062767297422624
0.8093279315754724478892967 0.001193516969195618226962097 0.7581344146062767297422624
1.642377285775508344300988 0.00426371465305030051401447 0.7618864288775419879584661
1.634754571551016555375213 -0.01666666666666666296592325 0.7695091431020335548396361
1.642377285775508344300988 -0.02906961868028303322408767 0.7618864288775417659138611
1.6262428463131981537515 -0.000356783808970315759623998 0.7765996301221684827709169
1.625353835299871096964353 0.001421238217683434227472938 0.7760674029178119548433301
1.631542189070977588727374 -0.01975574713181496577796281 0.7665433646517758603522452
1.640709443528043376403502 -0.0347545715510167579909151 0.760465190659858514266034
1.624698306080623932956541 -0.003445864274118618734293884 0.775055089889594261975958
1.624698306080624377045751 0.003445864274118625673187788 0.775055089889594261975958
1.631542189070977588727374 0.01975574713181497271685672 0.7665433646517758603522452
1.640709443528043376403502 0.0347545715510167718687029 0.760465190659858514266034
1.637497061048004187711058 -0.0050035267423946122589129 0.7574994122096008197786432
1.629997648838403367932415 0.01333098217173692839887522 0.7649988244192016395572864
1.637497061048004631800268 0.03166549108586846905666334 0.7574994122096008197786432