# geometry NO_DATA 468
#  x  y  z
0.9457544560052428828100801 0.03945113585717098525496027 0.5936966798519280885670923
0.9415089120104858100290812 -0.01666666666666689541886903 0.5904800239338285905432713
0.9457544560052428828100801 0.006117802523837653251581603 0.5936966798519281995893948
0.9399258175033229356643005 0.0135004776523406592320109 0.5915089120104859432558442
0.9425882669909173561251237 -0.01134176769147839970719449 0.5957544560052430160368431
0.9425882669909171340805187 0.0383427229961599558283325 0.5957544560052429050145406
0.9454788092810846311664363 -0.04150891201048595435807442 0.5944499212044274116806264
0.9438957147739218678239581 -0.04150891201048595435807442 0.5954788092810847643931993
0.9438957147739217568016556 0.0415089120104857323134695 0.5954788092810845423485944
0.9454788092810846311664363 0.0415089120104857323134695 0.5944499212044271896360215
0.9870669879717486328019049 0.009055946765041161111708945 0.5757943187441051380304202
0.9935334939858743164009525 0.02945626807012311290656648 0.5821891194458334028993818
0.9935334939858743164009525 -0.01134437454004078721370163 0.5821891194458335139216842
0.9828960726683103610312742 -0.02191360329927200326083359 0.5791624180298949875478343
0.9919860469987387130430534 -0.03706698797174861476078078 0.5844470324095106805728506
0.9726959120157694371755497 -0.03484661532752338780616341 0.5883336906057787807355908
0.9726959120157694371755497 0.03484661532752339474505732 0.5883336906057785586909858
0.9828960726683103610312742 0.02191360329927200673028054 0.5791624180298948765255318
0.9919860469987387130430534 0.03706698797174862169967469 0.5844470324095105695505481
0.9779770136413202807901257 -0.001513281994190054284901703 0.5705097043644894450054039
0.9753535453250175013550916 0.003733654638415283624763852 0.5716198906866021278716516
0.9651533846724765774993671 0.0146088905133519245810314 0.5807911632624858100371057
0.9575766923362383220563743 0.03278883917420864768654809 0.588852249516256809336312
0.9575766923362382110340718 -0.003571058147504797223442674 0.5888522495162569203586145
1.035155368486677440742483 0.01306987870744664992361805 0.5797129042003791310477823
1.042577684243338742575702 0.03155858052745761505031297 0.5871588611307745342315911
1.042577684243338742575702 -0.005418823112564303060012527 0.5871588611307745342315911
1.029477914768831325886822 -0.02169148378067595542284529 0.5776558796154871444628043
1.039412639082497147313688 -0.03515536848667762115372426 0.5857922099495429524296242
1.020233563858825798220664 -0.03653611529399832663633774 0.5830948705746799021198967
1.020233563858825798220664 0.03653611529399832663633774 0.5830948705746799021198967
1.029477914768831325886822 0.02169148378067594501450444 0.5776558796154871444628043
1.039412639082497147313688 0.03515536848667762809261816 0.5857922099495429524296242
1.025220644173011619315616 -0.003202781960664999403448627 0.5715765738663233230809624
1.022708235616006877677364 0.001822035153344284163015598 0.5708862004626629182979514
1.013463884706001572055811 0.009055946765041155907538517 0.5763251914218556759550438
1.006731942353000786027906 0.02892539539237282131267648 0.5824545557847087273728448
1.006731942353000786027906 -0.01081350186229050082398206 0.5824545557847087273728448
1.077244812378275184983067 0.004200489855832400566681972 0.5769556774775570495705779
1.079272773581011701793386 -0.0001445674503589456792902734 0.5791282061306528561317464
1.081370997184446736127938 0.004341014657229099078794565 0.5875338231891656937122548
1.081441259585144587518357 -0.01652614186526997486215151 0.5937669115945828357538971
1.081441259585145031607567 0.02520817117972801515990433 0.5937669115945829467761996
1.076977912572198325946715 -0.004734289467985972922614568 0.5768333451218392582404704
1.068572295513685377343904 -0.02125638868429352568156787 0.5834405682007420823609323
1.070937418923196826625599 -0.03753382318916556603660695 0.5919685176149729333161531
1.068572295513685377343904 0.02125638868429369221502157 0.5834405682007421933832347
1.070937418923197270714809 0.03753382318916574644784845 0.5919685176149729333161531
1.076977912572198325946715 0.00473428946798612297619524 0.5768333451218392582404704
1.074949951369461587091791 -0.0003892321617946267850625397 0.5746608164687435627016043
1.074683051563384950100044 0.0001445674503590959226063256 0.5745384841130257713714968
1.066277434504872001497233 0.01306987870744664992361805 0.5811457071919285954919587
1.058138717252435911930775 0.03012577753590793896987243 0.5878752626265493219648306
1.058138717252435911930775 -0.003986020121014627846933731 0.5878752626265493219648306
0.8934030862711327403147266 0.03305359164377023178937876 0.6396505053726372347355777
0.8868061725422655694472951 -0.01666666666666667684371106 0.6349298820930180387023256
0.8934030862711327403147266 -0.0002797416895630918114330765 0.6396505053726373457578802
0.8849885657299605412617893 0.01303145304205626832383391 0.6368061725422657914919
0.8897678726465223508768076 -0.007108052833542929244137198 0.6434030862711329623593315
0.8897678726465223508768076 0.03317095891765547976959283 0.643403086271132851337029
0.893040327183818316569841 -0.03680617254226586920751174 0.6411640367345706748025691
0.8912227203715131773620328 -0.03680617254226587614640565 0.643040327183818538614446
0.8912227203715130663397304 0.03680617254226586226861784 0.6430403271838184275921435
0.893040327183818316569841 0.03680617254226585532972393 0.6411640367345705637802666
0.9362554209584941222743737 -0.03587811891626187937864856 0.6211718487989903447754614
0.9211718487989901671397774 -0.03587811891626187937864856 0.635962225016409199440659
0.9211718487989901671397774 0.03587811891626188631754246 0.635962225016409199440659
0.9362554209584940112520712 0.03587811891626188631754246 0.6211718487989902337531589
0.9372280848608767200857983 -0.005710974597254324727768626 0.6070609405418690984745922
0.9292054532432417746079523 0.0135004776523408899502332 0.6141218810837381081313424
0.9372280848608764980411934 0.03271192990193610983240546 0.6070609405418690984745922
0.9141218810837379304956585 0.01291408576817103942557807 0.62891225730115696279654
0.9070609405418689208389083 0.03212553801776624889940948 0.636641692976706696782685
0.9070609405418689208389083 -0.006297366481424176987147234 0.6366416929767068078049874
1.095046283812928233913908 -0.006578167946004701005513482 0.6099979655474025985739672
1.097523141906464161365875 0.02180144920025682900299735 0.6125653568141974369964942
1.097523141906464161365875 -0.03495778509226641489471277 0.6125653568141976590410991
1.091360315901744870714651 -0.04504628381292819644388103 0.6075211074538667821443028
1.091360315901745092759256 0.04504628381292839073291034 0.6075211074538665600996978
1.088883457808209165307289 -0.01666666666666647561578785 0.6049537161870717216771709
1.085197489897026024152638 -0.0006127015298426803646680838 0.602476858093535794225204
1.085197489897026468241847 0.03272063180349065597551927 0.602476858093535794225204
1.135543378627657640222992 0.01334375843644684464517347 0.629461833923899094500598
1.142771689313828886724878 0.03222047039743780594278633 0.6372387357892846937446052
1.142771689313828886724878 -0.005532953524544109713545481 0.6372387357892846937446052
1.118811011384367448684429 -0.03012101169399930555847789 0.6166009660900432232111257
1.132766494584205085871531 -0.03554337862765762079408915 0.6288949951747708766447431
1.109372655403872087731543 -0.04457763306634167366215848 0.614416904764202964628339
1.109372655403871643642333 0.0445776330663418818289756 0.6144169047642026315614316
1.118811011384367226639824 0.03012101169399950331695415 0.6166009660900431121888232
1.132766494584204863826926 0.03554337862765762079408915 0.6288949951747706546001382
1.121587895427820225080495 -0.01124429973300835119975893 0.6171678048391716631115855
1.114860722914153834395279 0.002210045294324489151271962 0.6126506776198294978996728
1.105422366933658251397787 -0.00657816794600468886244915 0.6104666162939891282945837
1.102711183466829059085512 0.02133279845367032703795651 0.6127996821874907018568024
1.102711183466829059085512 -0.03448913434567989905188412 0.6127996821874909239014073
1.163568266235301518207734 -0.03092857358324267030846855 0.6444968398185442204351148
1.165038873389834472860116 -0.008601560612821051998722055 0.6389936796370883076434666
1.163568266235301518207734 0.01372545235760056804574791 0.6444968398185442204351148
1.159535713208378560068468 -0.03899367963708828821456365 0.6428353857034341256593279
1.159535713208378782113073 0.03899367963708828821456365 0.6428353857034342366816304
1.155503160181456046018411 0.03567077140686846642436691 0.6411739315883242529281461
1.161006320362911736765454 0.0133437584364468498493439 0.6373322255219783238899822
1.155503160181456046018411 -0.008983254533974766725679117 0.6411739315883242529281461
0.8477971244101767389622637 0.04343167050966335873685154 0.6956345460994863838521951
0.8455942488203531670620805 -0.01666666666666656235196164 0.6945129596650080339159672
0.8477971244101767389622637 0.01009833717633002933555808 0.6956345460994863838521951
0.8450129660384042562526474 0.01550410110276885695956839 0.6955942488203530338353175
0.8466345588462786952987926 -0.01342348105091775017916333 0.6977971244101764947131983
0.8466345588462789173433976 0.04443168325645536348433851 0.6977971244101764947131983
0.8476106187907632705247352 -0.04559424882035316428652294 0.6965293296354178043117145
0.8470293360088142486929996 -0.04559424882035316428652294 0.6976106187907629152533673
0.8470293360088143597153021 0.0455942488203532753088254 0.6976106187907629152533673
0.8476106187907632705247352 0.0455942488203532753088254 0.6965293296354180263563194
0.886144499542664609847975 -0.03579000520714398225763375 0.6712954396883032970322347
0.8712954396883031416010112 -0.03579000520714398225763375 0.6868808171996247935453539
0.8712954396883031416010112 0.03579000520714402389099718 0.6868808171996249045676564
0.886144499542664609847975 0.03579000520714401695210327 0.6712954396883032970322347
0.8868031171051509176095351 -0.006091885498421044028982685 0.6571049973964280255245285
0.8790590546472173416603368 0.01303145304205630301830343 0.6642099947928560288445965
0.8868031171051509176095351 0.03215479158253362751418436 0.6571049973964280255245285
0.8642099947928559844356755 0.01450408835597677588424848 0.6797953723041776363800182
0.8571049973964279811156075 0.0336274268964541003801294 0.6882757524190712405953718
0.8571049973964279811156075 -0.004619250184500571163037641 0.6882757524190712405953718
1.188835396085223816697862 0.00627912310287920098772485 0.6726374987995488163861069
1.194417698042611997166773 0.02844785252143650772227446 0.6785280917269337352948355
1.194417698042611775122168 -0.01588960631567812656350647 0.6785280917269337352948355
1.181783584402867903762058 -0.03883539608522397490464328 0.667055196842160857961801
1.181783584402868125806663 0.038835396085223995721325 0.667055196842160857961801
1.176201282445479945337752 -0.01666666666666664908813544 0.6611646039147760500753748
1.169149470763124032401947 -0.01976616452759705905295462 0.6555823019573880916510689
1.169149470763124476491157 0.01356716880573627381778579 0.6555823019573880916510689
1.231767001537081629436443 0.01214460775010783172289663 0.6803776062130257873405981
1.237491956581121765879061 -0.0006946976620284123216109151 0.686797258919093822626678
1.242137913252086667270646 0.009986611003957753668336395 0.6954779410834410757757951
1.241058914879012098353428 -0.01882466341281675142882435 0.6977389705417206267057395
1.241058914879011654264218 0.03879788542073259183240452 0.6977389705417202936388321
1.229473435204009756915866 -0.01673174041625224289786544 0.678778737541982035708088
1.220792753039662281722144 -0.03270370942089083354797907 0.68226564792443566975777
1.227732276043699943812726 -0.04547794108344150459943833 0.692545198759826896584002
1.220792753039662281722144 0.03270370942089051435885949 0.6822656479244353366908626
1.227732276043699499723516 0.04547794108344117847142485 0.6925451987598265635170947
1.229473435204009534871261 0.01673174041625191676985196 0.6787787375419818136634831
1.223748480159969620473248 -0.003892435004116002322804846 0.6723590848359137783774031
1.221454913826897525908066 0.0006946976620280827241504795 0.6707602161648698047002881
1.212774231662550272758949 0.006279123102879190579383994 0.6742471265473235497722726
1.206387115831275114175014 0.02683822477366185066394166 0.6793329056008210464767672
1.206387115831275114175014 -0.01427997856790348164823801 0.6793329056008210464767672
0.8361689766346374064198699 -0.0064765075520260648872517 0.742645484186663318304511
0.8291162620373235814241752 0.01214779415463419429133118 0.7352909683733268586536269
0.8361689766346375174421723 0.0307720958612944586740845 0.742645484186663318304511
0.839416825031057634021181 -0.03433496064652430401764605 0.7233314411463398485580001
0.8306859569596765080490286 -0.01962592901985123552965895 0.7326435919996701073841905
0.8372606676935890890334235 -0.03529096837332692387922961 0.7414777389895987891321738
0.8306859569596765080490286 0.0196259290198512389991059 0.7326435919996701073841905
0.837260667693589200055726 0.03529096837332693081812351 0.7414777389895990111767787
0.8394168250310577450434835 0.03433496064652431095653995 0.7233314411463398485580001
0.8400032874461731413617827 -0.002164192877088885139796881 0.7078325196767376592532628
0.8317504232381933704232324 0.01550410110276875287615983 0.7156650393534755849600515
0.8400032874461733634063876 0.03317239508262639913205305 0.7078325196767376592532628
0.8230195551668121334287775 0.001957635039993593610574418 0.724977190206805621741637
0.8225415513034108894174778 -0.00100162731319097505003346 0.7264568213833980658833411
1.246944166225125938396445 -0.01040934226682099957017602 0.7061844959747967109819911
1.24847208311256285817592 0.01986815729163867588757952 0.7077852412872829290790833
1.24847208311256285817592 -0.04068684182528043563609188 0.7077852412872827070344783
1.24513205528120884935106 -0.04694416622512632975006142 0.7046565790873597912025161
1.24513205528120840526185 0.04694416622512610770545649 0.7046565790873600132471211
1.243604138393771929571585 -0.01666666666666689888831598 0.7030558337748736841277264
1.24179202744985439643699 0.006930777229084186460972283 0.7015279168874367643482515
1.241792027449854174392385 0.04026411056241752106643617 0.7015279168874367643482515
1.285183032673059777550861 0.01454904810381517366035808 0.7304248247121809534121439
1.292591516336529799957589 0.03306541411020842702317424 0.7386241984339517729907243
1.292591516336529799957589 -0.003967317902578089243437187 0.7386241984339517729907243
1.266290873960876250947649 -0.03178766163038344166880123 0.7144411746211499769643183
1.281259855106204881280973 -0.0351830326730599163287394 0.7283513464850527308058759
1.257032690957679665899605 -0.04660462895732352117672548 0.7101613531576029814118556
1.257032690957680109988814 0.04660462895732327137654494 0.7101613531576035365233679
1.266290873960876695036859 0.03178766163038319186862068 0.7144411746211504210535281
1.281259855106205103325578 0.03518303267305993020652721 0.7283513464850530638727832
1.270214051527731147217537 -0.01327129562399018310181464 0.7165146528482783105928888
1.26265355404587298338015 0.001849699339726333657818458 0.7108038547061465983745165
1.2533953710426761762875 -0.01040934226682102038685773 0.7065240332425994917997514
1.251697685521337977121448 0.01952862002383583955866797 0.7079550099211845415325683
1.251697685521337977121448 -0.04034730455747762012386204 0.707955009921184208465661
1.306913831685325044773549 -0.04025747573568343173899819 0.7471713074210084570836443
1.307699954711149636921164 -0.01258152756033301816751546 0.7443426148420170251895911
1.306913831685325044773549 0.01509442061501739713869075 0.7471713074210084570836443
1.304871262132158094004808 -0.04434261484201707653740598 0.74611249813958269161418
1.304871262132158094004808 0.04434261484201708347629989 0.74611249813958269161418
1.302828692578991365280672 0.04222499627916558029294691 0.7450536888581569261447157
1.305657385157982908197027 0.01454904810381516672146418 0.7432838055605911486978243
1.302828692578991365280672 -0.01312690007153524858474203 0.7450536888581569261447157
0.8397758017031073940472652 -0.002386025063993157079023089 0.7921618267671004520735778
0.8316451607009028856865029 0.01527096180354125566636103 0.784323653534201192805142
0.8397758017031075050695677 0.03292794867107565887076603 0.7921618267671006741181827
0.8373197078518210823006029 -0.03505219489377384145534222 0.7729124774411705312004983
0.83075065067407005692246 -0.01937584842797491352373029 0.7817409708749378793868345
0.8392455623560609589972614 -0.03432365353420106790505173 0.790933734988491399242605
0.830750650674070278967065 0.01937584842797494821819981 0.781740970874937990409137
0.8392455623560610700195639 0.03432365353420108872173344 0.7909337349884915102649074
0.8373197078518211933229054 0.03505219489377386921091784 0.7729124774411706422228008
0.8362883633744139233456849 -0.00623773407247298246336431 0.7574739025531129765766991
0.8293550355168766152758053 0.01214779415463421337328942 0.7649478051062260641757007
0.8362883633744140343679874 0.03053332238174139359743187 0.7574739025531129765766991
0.8227859783391254788753599 0.0009903202008677671266956288 0.7737762985399934123620369
0.8231502490189118725893991 -0.001718861560440500778346173 0.7751308894206474509047666
1.336974595145603794676958 0.01053458096658312082016806 0.7766260286710213733840646
1.343487297572802052769703 0.03084250944552015608057793 0.7837139500604479724898965
1.343487297572802052769703 -0.009773347512353933522200045 0.7837139500604479724898965
1.328863200459301951994462 -0.03697459514560370169578007 0.7701133262438230042690179
1.328863200459302174039067 0.03697459514560372251246179 0.7701133262438230042690179
1.322350498032103915946323 -0.01666666666666664561868849 0.7630254048543962941408836
1.314239103345802295308431 -0.02560693241472929496116429 0.7565127024271981470704418
1.314239103345802295308431 0.007726400918604041379023073 0.7565127024271981470704418
1.375712431899404508683915 0.001223703674503778164942003 0.775511271775099708669643
1.37627399370557990110342 -0.0001005800621522127681313832 0.7761734136434276232208163
1.373151911129804503275409 -0.006143585089398832972673592 0.7845570370078371880140367
1.369468266747853490983289 -0.02403395543056926347835756 0.7922785185039185051891764
1.369468266747853490983289 0.0117467852517716027371808 0.7922785185039185051891764
1.375351491552343929924973 -0.001945584368624772835659753 0.7752509114901913189754623
1.36696786818793425410945 -0.01851167097313922982326773 0.7805684920045591335124868
1.364206725959219212995777 -0.0345570370078370978084159 0.7892124756538768659552829
1.36696786818793425410945 0.01851167097313924023160858 0.7805684920045591335124868
1.364206725959219435040382 0.03455703700783710474730981 0.7892124756538768659552829
1.375351491552343929924973 0.001945584368624794302862768 0.7752509114901913189754623
1.374789929746167871371654 -0.0006213006319687817535085683 0.7745887696218632934019865
1.374428989399107514657317 0.0001005800621522343030970342 0.7743284093369551257524108
1.366045366034698282931004 0.01053458096658311388127416 0.7796459898513227182448304
1.358022683017349407919028 0.02782254826521857182797248 0.7852239306505988114537331
1.358022683017348963829818 -0.006753386332052358810573711 0.7852239306505988114537331
0.8447136333848188627371201 -0.01338587381511193233341039 0.8069267630409584501904874
0.847356816692409475777481 0.01466109290303998537174923 0.805923976159144794806366
0.8473568166924093647551786 -0.0414328405332641327984966 0.8059239761591451278732734
0.8466589642608465249296046 -0.04471363338481857546691245 0.8042835797333678371501264
0.846658964260846857996512 0.04471363338481887383935032 0.8042835797333678371501264
0.8440157809532560229115461 -0.01666666666666637847127319 0.8052863666151811594673404
0.845961111829284018170938 0.009984595188360118056536407 0.802643183307590435404677
0.8459611118292841291932405 0.04331792852169345092727681 0.8026431833075906574492819
0.8845176754096322202514102 -0.008835589170053136098825775 0.8433532645796854021469358
0.8772289408352880180075317 0.01120427332265108710807056 0.8367065291593709375206345
0.8845176754096322202514102 0.03124413581535532419275469 0.8433532645796854021469358
0.8705822054149733313366255 -0.03670652915937090005060739 0.8283269943387959743930082
0.8705822054149733313366255 0.03670652915937090005060739 0.8283269943387958633707058
0.8566467354203145534441433 0.0066539886775920046441124 0.8133007240979065466390807
0.8632934708406290180704445 -0.01338587381511223417529521 0.821680258918481287722102
0.8566467354203145534441433 -0.03342573630781645738219154 0.8133007240979065466390807
1.389537694277191537395311 0.004905741421929527695811046 0.821248509767106726897623
1.394768847138595946333339 0.02777676903245431330735649 0.8268035609500006266614491
1.394768847138595946333339 -0.01796528618859520934347707 0.8268035609500006266614491
1.383363721260562950732265 -0.03953769427719145551636259 0.8160173569057024289818969
1.383363721260563394821475 0.03953769427719140000521136 0.8160173569057024289818969
1.378132568399158985883446 -0.01666666666666672541596839 0.8104623057228084181957684
1.3719585953825303992204 -0.01660589081220742793676415 0.8052311528614041202800422
1.371958595382530621265005 0.01672744252112590493397626 0.8052311528614042313023447
1.426660850104353617240349 0.00190843239420097942130039 0.8252475822898470703137264
1.427261749347827457512494 -0.0007066339072534953344439934 0.8265551154405743616848667
1.420816802455059146836902 -0.01218325987828397169443484 0.835241765727534279939448
1.413770956318816551799955 -0.03075835893915162405631847 0.8426208828637671288674937
1.413770956318816551799955 0.006391839182583685871619217 0.8426208828637671288674937
1.423706891994795054046108 -0.007816348613318476606925955 0.8230002580875417361738755
1.415020241707834802724619 -0.02377638137273165724883128 0.8258064457521332446532369
1.411529252924625055243268 -0.03524176572753433267504164 0.8367404202413986080699715
1.415020241707835246813829 0.0237763813727315982682331 0.8258064457521332446532369
1.411529252924625277287873 0.03524176572753431879725383 0.8367404202413986080699715
1.423706891994795054046108 0.007816348613318415891604296 0.8230002580875417361738755
1.423105992751321213773963 -0.00520128231186400228486244 0.8216927249368144448027351
1.420152034641762650579722 0.0007066339072534348359627687 0.8194454007345093327074892
1.411465384354802843347443 0.00490574142192953463470495 0.8222515883991008411868506
1.4057326921774013772648 0.0267736904004601990181289 0.8273051002659977948283654
1.4057326921774013772648 -0.01696220755660108464590863 0.8273051002659977948283654
0.8918037193095696979483478 0.00675208323704768343526128 0.8649483639274777591054999
0.883607438619139373692235 -0.01666666666666665602702935 0.8701797609280933487596599
0.8918037193095696979483478 -0.02658125009628565030284086 0.8649483639274777591054999
0.8752561307116694111485344 -3.594914827335380432416639e-05 0.8752920798599426177588612
0.8751011034946296618386441 0.0002741052858061020030232269 0.8751730017911762971039025
0.8806274897316567207283811 -0.01716417109761644160803584 0.8666920197369976097689914
0.889072522637561868386058 -0.03360743861913940977448334 0.8617093749518570655610006
0.8750073784961944767246678 -0.0005334535792231431122756291 0.875043327644467572312692
0.8750073784961944767246678 0.0005334535792231752046599347 0.875043327644467572312692
0.8806274897316567207283811 0.01716417109761646936361146 0.8666920197369976097689914
0.889072522637561868386058 0.03360743861913943753005896 0.8617093749518570655610006
0.886092573750079215422204 -0.005685792489159263718434545 0.8582216337607613265703321
0.8803787375161818973268169 0.01120427332265110965947574 0.8664432675215227863674272
0.886092573750079215422204 0.02809433913446147956793908 0.8582216337607612155480297
0.8747586262807196533231036 3.594914827338597124737132e-05 0.8747945754289927489111278
0.8748523512791548384370799 -0.0002233991451436872642706544 0.8749242495757012516577333
0.9335152780621736035016056 -0.01014890071086426565072358 0.8936641787730376096376972
0.9262613708715302651697243 0.01051279016854445025330733 0.8873283575460753080932363
0.9335152780621733814570007 0.03117448104795316268789129 0.8936641787730376096376972
0.919925549644567852602961 -0.03732835754607537193106026 0.8802365010819916957274245
0.919925549644567852602961 0.03732835754607539274774197 0.8802365010819916957274245
0.9063358212269623237489213 0.01047300216398364125502951 0.8668088233909460038617567
0.9126716424539247363156846 -0.0101886887154250677101075 0.8739006798550296162275686
0.9063358212269623237489213 -0.03085037959483378361413841 0.8668088233909460038617567
1.394512072365533983386854 0.01638409708533630770865841 0.8718720247198025186108339
1.38902414473106761150234 -0.01666666666666671153818058 0.877704120908201934625481
1.394512072365533983386854 -0.01694923624799702863152895 0.8718720247198025186108339
1.377850146194370184460354 -0.005681330406728553675255178 0.8890241447310676115023398
1.372164075292138907258277 -0.02803880847112949839528007 0.8945120723655337613422489
1.372164075292138907258277 0.01667614765767243267813313 0.8945120723655337613422489
1.383532975007815579715498 -0.0390241447310676614623759 0.8722129511849497918163365
1.372358976471117930628907 -0.03902414473106765452348199 0.8835329750078153576708928
1.372358976471117930628907 0.03902414473106761982901247 0.8835329750078153576708928
1.383532975007815579715498 0.03902414473106761982901247 0.8722129511849497918163365
1.427496463612061283754429 0.0005779658527015832250942062 0.8730815022406401837429257
1.426681706195556786909151 -0.002207480685710498744672714 0.8744742255098461036766366
1.422936777299291577492113 -0.005282377106820303896972391 0.8782191544061115351382796
1.420006605819530420831143 0.0005779658527015403991083931 0.8805713600331708246216067
1.418647343275451611077642 -0.01945211320507874916407864 0.8664398625897409278451278
1.412266730409958981340424 -0.03554081401904383985534963 0.8578175463300570235958276
1.414314461039607451198208 -0.02252700962618855301533571 0.8749434809902283394222877
1.409210269599262987938459 -0.03391129918603491555373353 0.8645569124430638741074517
1.414902414379186179615999 0.02252700962618851138197229 0.8701847914860063593067707
1.406280098119502053322094 0.03861571044015360554269023 0.8669091180701233856353838
1.420301093330063935127328 0.0194521132050787526335256 0.8658519092501619773827315
1.411451972993454484495146 0.03391129918603492249262743 0.8592102695992629435295385
1.42111585074656865401721 -0.01666666666666666990481716 0.8644591859809560574490206
1.413920480464571305390109 -0.02664244585924013808408972 0.8572295929904779621111288
1.413920480464571305390109 0.006690887474093202592906326 0.8572295929904779621111288
1.405692144779923324904303 0.01597566279442229342233617 0.8716678075743453657509008
1.411384289559846294537238 -0.005973380979064678644729902 0.8772956866172877399279173
1.405692144779923324904303 -0.0279224247525516125478795 0.8716678075743453657509008
0.9419452907219453274834109 0.00456880108524396373603782 0.9126235103632984735355649
0.9338905814438906993757428 -0.0166666666666666525575824 0.9192296912645671058683661
0.9419452907219453274834109 -0.02876453224808937086942606 0.9126235103632983625132624
0.9254951307079176681114063 -0.0001242348052792701632203454 0.9256193655131969011407023
0.9251543892499991539324355 0.00055724811055749565516515 0.9254028588605578420356323
0.9300837904126122435144453 -0.0181263722311013376897737 0.9164940619950066036381031
0.9388683524728842488826785 -0.03389058144389080207137255 0.9106177338759550154989597
0.9247652779257002908508412 -0.001583940369713952855956762 0.9248895127309795238801371
0.9247652779257002908508412 0.001583940369713990152511496 0.9248895127309795238801371
0.9300837904126122435144453 0.01812637223110136544534932 0.9164940619950067146604056
0.9388683524728842488826785 0.03389058144389082982694816 0.9106177338759551265212622
0.9350615614416059040436835 -0.007056333951999426042089869 0.9078821046063946242909992
0.9293539376303949772761825 0.01051279016854445198803081 0.9157642092127893373998404
0.935061561441605793021381 0.02808191428908832568134279 0.9078821046063946242909992
0.9240354251434830246125784 0.0001242348052793073513548616 0.9241596599487622576418744
0.9244245364677818876941728 -0.0009024574538771869833611583 0.9246730060783404647750672
0.9935021893276402282779713 0.01239299582516408676502451 0.9188908064975238598748319
0.9870043786552802345113378 -0.01666666666666666990481716 0.9246986872402219725941563
0.9935021893276402282779713 -0.02094033750816924957516285 0.9188908064975237488525295
0.9776969426371584503954182 -0.001948205369576736130377004 0.9296451480067349226743545
0.9748873172913965490238297 0.003671045321946894875175804 0.9287837280305497600352282
0.9806020221014151161398331 -0.03700437865528021647021362 0.9182963306863568542226517
0.9675280866428517256849773 -0.02228591735819027835896478 0.9214820684997714339559138
0.9639353554347485086850611 -0.03700437865528020953131971 0.915941131922091367201233
0.9712945860832933320239135 0.02228591735819029917564649 0.9232427914528698043028498
0.9611257300889866073134726 0.03528153870291008548099043 0.9150797119459064266067116
0.9806020221014152271621356 0.03700437865528021647021362 0.9182963306863568542226517
0.9573592306485450009745364 0.005959758344263228931059206 0.9133189889928079452374732
0.9647184612970898243133888 -0.012655113691980173634688 0.9206206485235863823390901
0.9573592306485450009745364 -0.03126998572822358574141433 0.9133189889928079452374732