# geometry NO_DATA 764
#  x  y  z
0.8949297468181878212334368 0.01884086532684294684747428 0.4239111185086549271616718
0.889859493636375842307018 -0.01666666666666666990481716 0.4293501794816093619644448
0.8949297468181878212334368 -0.01449246800649038602326613 0.4239111185086549271616718
0.8793543887881052345534272 -0.004343543029874536061385459 0.4398594936363758312047878
0.87391953712164682777086 -0.0275363699995838165368589 0.4449297468181879766646603
0.87391953712164682777086 0.01884928393983475308770537 0.444929746818187921153509
0.8849317722221936577398083 -0.03985949363637595471709929 0.424422458067427177397235
0.8744266673739230499862174 -0.03985949363637595471709929 0.4349317722221937021487292
0.8744266673739230499862174 0.03985949363637595471709929 0.4349317722221935911264268
0.8849317722221936577398083 0.03985949363637594777820539 0.4244224580674270663749326
0.9420181980807922350606987 0.002058443181641268510811971 0.4100402451008487436645567
0.9340363961615845145303183 -0.01666666666666666990481716 0.4180474196716129631212766
0.9420181980807922350606987 -0.03127489015169206132416235 0.4100402451008487436645567
0.923506345390778471404758 -0.004393434874945508286647744 0.427899780265724283268014
0.9209580965391800377872755 0.0007030628282515254817708339 0.4297449662890712174245778
0.9264721494399840162614623 -0.03403639616158486702612862 0.4104831729500122983189669
0.9148214806433194734580638 -0.02176316436986370367323573 0.4253722680301653680245977
0.9098054827733174088066903 -0.03403639616158486702612862 0.4159628352852176580434218
0.915942098669177973135902 0.02176316436986370020378878 0.4203355335441235074434019
0.9072572339217188641669054 0.03772676820827883248377077 0.4178080213085646477111368
0.9264721494399839052391599 0.03403639616158486702612862 0.4104831729500122983189669
0.9061366158958603644890673 0.01670813989874583502248662 0.4228447557946064527811814
0.9122732317917209288182789 -0.004351961642866335362722641 0.4272174540535123021811614
0.9061366158958603644890673 -0.02541206318447850748265537 0.4228447557946064527811814
0.9924225817458756093714101 -0.01602948227672397474297128 0.4078960104490956251055422
0.9962112908729379157080075 0.009726432802485010867266091 0.4044258935170047530860415
0.9962112908729376936634026 -0.04178539735593296555737908 0.4044258935170047530860415
0.9677466748352285819123608 -0.03354932279297276331853084 0.4086574264226863206772578
0.9799767120254437857695962 -0.04242258174587565378033105 0.4045393891412061848633641
0.9548687172956240587495813 -0.04112674104709711231375735 0.4055464074723190148752394
0.9548687172956240587495813 0.04112674104709711925265125 0.4055464074723190148752394
0.9677466748352285819123608 0.03354932279297277025742474 0.4086574264226863206772578
0.9799767120254438967918986 0.04242258174587566071922495 0.4045393891412062403745153
0.9801925445556604055141747 -0.00779340771376378117774042 0.4120140477305756498971334
0.9717512164925073969712344 0.009089248412542320909590643 0.4126619680799649136915264
0.9588732589529027627861524 -0.01531128631327692557473341 0.4095509491295976634006593
0.9544366294764512481663132 0.009148788067153525507824163 0.405792009829841093804248
0.9544366294764513591886157 -0.03977136069370737492256751 0.405792009829841093804248
1.033472078149815898129305 -0.0152220020778867093369513 0.4172502541445740620318361
1.041736039074907971269113 0.001583409405262555750409925 0.4097086255138719934620894
1.041736039074907971269113 -0.03202741356103597225590818 0.4097086255138719934620894
1.017085043265383292876436 -0.01702609114388677763463065 0.4169462984489007983945896
1.025528716429085385186681 -0.03347207814981593282377403 0.4094456372403261767978222
1.008682337523808536516867 -0.03355401299407084758641417 0.4090009297187800485495757
1.008682337523808758561472 0.03355401299407084758641417 0.4090009297187800485495757
1.017085043265383292876436 0.01702609114388677069573674 0.4169462984489007983945896
1.025528716429085607231286 0.03347207814981593282377403 0.4094456372403262323089734
1.025028404986113583774454 -0.0002206796607375149867243114 0.4247509153531486281174523
1.024848692747503564604017 0.0001387448164825900596888036 0.4247099479310211256333218
1.016445987005929030289053 -0.01602948227672397821241823 0.4167645792009004868106103
1.008222993502964515144527 0.0008578640506802029386257402 0.4088601778929072949608781
1.008222993502964515144527 -0.0329168286041281593634622 0.4088601778929071839385756
1.092338742919633398642532 0.005949959827249423800765715 0.4136112169076160971492584
1.084677485839266708467221 -0.01666666666666667337426411 0.4203137228332579633516275
1.092338742919633398642532 -0.02738337350608391340678338 0.4136112169076160971492584
1.076081803616588228322826 -0.0005246977786902961302453741 0.4266065013952783369077792
1.075147378474276438353741 0.001344152505933252474482065 0.4261967740316568442615619
1.077487802565780139474327 -0.03467748583926660160825506 0.4131240395597715053810361
1.067076394030288088998759 -0.01853551695129022902630567 0.4183234241033683131760768
1.060821135899113532019555 -0.03467748583926660160825506 0.4115434681935033478517028
1.068892120343101659329932 0.01853551695129020820962396 0.4194168181217918789371879
1.05988671075680174205047 0.03385803111202361631582036 0.4111337408298819107166366
1.077487802565780139474327 0.03467748583926659466936115 0.4131240395597715608921874
1.058070984443987949674693 0.001969362367470241410860599 0.4100403468114584004666767
1.066141968887976299029674 -0.0152220020778867162758452 0.4179136967397468760410106
1.058070984443988171719297 -0.03241336652324366268684841 0.4100403468114584004666767
1.147201584649363281798173 0.034829685754049349855066 0.437628101104686084710238
1.144403169298726652414189 -0.01666666666666666990481716 0.4396164275263879095412278
1.147201584649363281798173 0.001496352420716018068527764 0.437628101104686084710238
1.134995463584803854217853 -0.002148744761178535307710735 0.4371442083459823324531612
1.128386173221518129494712 0.01106983596539306592687613 0.4326836627438750970675585
1.141897996196906461818799 -0.04440316929872641094068086 0.4371112544245678854792914
1.121127212268773876147065 -0.02988524739323827894565966 0.4255788606906105719929201
1.125231329530239854364027 -0.04440316929872641094068086 0.4275342331908977833165864
1.132490290482983663622463 0.0298852473932382685373188 0.4346390352441623083912248
1.11862203916695390759628 0.03548207809451185690274855 0.4230736875887904924198324
1.141897996196906461818799 0.04440316929872641094068086 0.4371112544245677744569889
1.107258960952743898076278 0.006754552082494681697344419 0.4140135130352387560215277
1.114517921905488151423924 -0.01206085934535051917837478 0.4211183150885032810961661
1.107258960952744120120883 -0.03087627077319570270685922 0.4140135130352387560215277
1.162709334677205497143859 -0.03491291629959104858560437 0.4476222509767964763405246
1.159921290873408006305567 -0.006335081012664724522953641 0.4452445019535929970899701
1.162709334677205497143859 0.02224275427426160994803794 0.4476222509767964763405246
1.157543541850204471543861 -0.04524450195359298876329746 0.4428355092044579111032476
1.157543541850204471543861 0.04524450195359300264108526 0.4428355092044579111032476
1.152377749023203445943864 0.03567101840891593461657649 0.4380487674321194013771219
1.154755498046406980705569 0.007093183121989605349755337 0.440457760181254376341542
1.152377749023203445943864 -0.02148465216493672391706582 0.4380487674321194013771219
0.8438208126898728567155672 0.01221344200238566948812924 0.4683926293125127982008848
0.8376416253797456246132924 -0.01666666666666666296592325 0.4749275336910655509470303
0.8438208126898728567155672 -0.02111989133094765991316422 0.4683926293125127982008848
0.8248123012660095731973797 -0.008991981560805552622928083 0.4876416253797455913066017
0.8181621644624007538837418 -0.02996694027388449935167536 0.4938208126898727678977252
0.8181621644624006428614393 0.01198297715227339410581919 0.4938208126898727678977252
0.8315254027430170058465819 -0.03764162537974560795994705 0.4688113110543368766691685
0.8186960786292809544306692 -0.03764162537974561489884096 0.4815254027430168060064375
0.8186960786292809544306692 0.03764162537974561489884096 0.4815254027430168060064375
0.8315254027430168948242795 0.03764162537974561489884096 0.4688113110543368766691685
0.8797045652957634631619044 0.0004018400363374835201381308 0.4706972747405740453707779
0.8776536626751347824892946 -0.004503645277594753304484243 0.4731500173975401457582279
0.8740346747774312419210219 -0.00273433051781237727168028 0.4767690052952436863265007
0.8724665895003562710030565 0.0004018400363374847669706291 0.4779352505359811265073233
0.8697471033910512128173309 -0.02157215198059889843529291 0.4652434581134563540416593
0.8673744118579451711781303 -0.03783697861092809311411855 0.4567092047619543127012776
0.8655004214259292005806401 -0.01980283722081652500457416 0.4721873269217282675924707
0.8591619474189204908043394 -0.03373517336967080809673192 0.4631145223969070912062307
0.8661281154933475612267557 0.01980283722081653541291502 0.4688624460111598946099321
0.8575938621418455198863739 0.03606766385114572315284676 0.4642807676376444758759021
0.875280971142028740850094 0.02157215198059891231308072 0.4646157640460380489066949
0.8653235092373164905055205 0.03373517336967081503562582 0.4591619474189203575775764
0.8773318737626576435673087 -0.01666666666666666296592325 0.4621630213890719485192449
0.8729082796089230322778008 -0.01650656441894643444712187 0.4560815106945360075663132
0.8729082796089230322778008 0.01682676891438689842361853 0.4560815106945359520551619
0.8569661680744271592402583 0.01063948047378578121158199 0.4676056485482128488584408
0.8639323361488542296626747 -0.008761516710693268567000658 0.4733535721624657632844446
0.8569661680744271592402583 -0.02816251389517232528447721 0.4676056485482128488584408
1.192585865311247772524439 0.008708464177836199721083332 0.4661225988665883557260372
1.185171730622495811502404 -0.0166666666666666664353702 0.4719400974001660142853609
1.192585865311247772524439 -0.02462486915549714008855098 0.466122598866588300214886
1.176657328841191230139884 -0.0003621368959423988198934041 0.4770194657371337187967697
1.175557061748638831844005 0.001838397289162459896649793 0.4762813355405236537265523
1.168457308780736614295392 -0.02709376267085344958118753 0.4632915159537357441266181
1.18108499147158241271427 -0.03517173062249579623683715 0.4626875654222514233637753
1.171443780839097836832252 -0.01078923290012918402569486 0.4718059177350403254891376
1.171443780839097836832252 0.01078923290012918229097139 0.4718059177350403254891376
1.168457308780736614295392 0.02709376267085345305063449 0.4632915159537357441266181
1.18108499147158241271427 0.03517173062249579623683715 0.4626875654222514233637753
1.164370569629823215507258 -0.03159044639435570900332095 0.4540389839758212087161837
1.16324376077864322098776 -0.006335081012664727125038855 0.458077967951642350818986
1.164370569629823215507258 0.01892028436902626689630758 0.4540389839758210976938813
1.16623023283700444352462 0.0003621368959423956757071039 0.4665923697329469321815054
1.170343513746545438536373 -0.008588698715024326718614489 0.4710677875384302604189202
1.234411835591538997292105 -0.00921073856475021837675321 0.4936225741562894064884404
1.226772056561335144664326 0.01136774308116194828754963 0.4872451483125788129768807
1.234411835591538997292105 0.03194622472707411842129943 0.4936225741562894064884404
1.220394630717624773197372 -0.03724514831257883656912 0.4803909409339595648624766
1.220394630717624773197372 0.03724514831257883656912 0.4803909409339596203736278
1.206377425843710549102639 0.01078188186791924352281313 0.4671593077116298342588152
1.212754851687420920569593 -0.00979659977799292834566014 0.4740135150902490268620681
1.206377425843710327058034 -0.03037508142390510368358036 0.4671593077116298342588152
0.7933158010624243861030891 0.00915800584859476074495177 0.5158422047861703774174202
0.7866316021248487277972572 -0.0166666666666666664353702 0.5228948039867216124321203
0.7933158010624243861030891 -0.02417532748473857906468254 0.5158422047861703774174202
0.7728301736815010869463549 -0.01093619022002865689979778 0.5366316021248486167749547
0.7657129441757289933789821 -0.03090112567821069050610916 0.5433158010624242750807866
0.7657129441757289933789821 0.009028745238153373237066646 0.5433158010624242750807866
0.7800147482373450680270821 -0.03663160212484870004168158 0.5162779500992180636842477
0.7662133197939973161538774 -0.03663160212484870004168158 0.5300147482373449570047796
0.7662133197939973161538774 0.03663160212484870698057549 0.5300147482373449570047796
0.7800147482373450680270821 0.03663160212484870698057549 0.5162779500992180636842477
0.8272254196226827005489213 0.0002499375322591198514583788 0.5230245179095758256693216
0.8263001629605355446983594 -0.002100450856553447761404518 0.5241997121039820850540991
0.8244729510009256578939585 -0.001553973062666350784047364 0.526026924063592193903105
0.8235709957034629269401194 0.0002499375322591179541045769 0.5266789418287958213227284
0.8183520742847123496943595 -0.01901705505547923724662951 0.5162516234281590010724017
0.8137311147381802722833299 -0.03543378418988678973944317 0.5077933213286961455779078
0.8160146489014629134217671 -0.01847057726159213875138931 0.5204984904926689415205487
0.8089685155231025603939088 -0.0335832708655924572216378 0.5118983840516421190969254
0.8165248623251024628899586 0.01847057726159213875138931 0.5180788353877688878768026
0.8080665602256398294400697 0.03488730639599969124420298 0.5125504018168457465165488
0.8216792034140032452427249 0.01901705505547923724662951 0.5157414100045192295596053
0.8128058580760330054104656 0.0335832708655924572216378 0.5089685155231024049626853
0.8226044600761506231378917 -0.0166666666666666664353702 0.5145662158101131922194327
0.8170582438674711678316953 -0.02355819737091877433265985 0.5072831079050565961097163
0.8170582438674711678316953 0.009775135962414562007527508 0.5072831079050565961097163
0.8075563468020001689495757 0.007413710119745745008579263 0.5149700569217459111825974
0.815112693604000182467928 -0.01080692960958727633080656 0.5211505082578726799624746
0.8075563468020000579272732 -0.02902756933892029073129848 0.5149700569217458001602949
1.241140640887578694417925 -0.01450864448377934060041561 0.5099383702038648991106129
1.245570320443789569253568 0.009965329737132648524333689 0.5065877017390979508704163
1.245570320443789569253568 -0.038982618704691322786271 0.5065877017390979508704163
1.242920858651037185893529 -0.04114064088757864168233169 0.5055086906476542463195756
1.242920858651037185893529 0.0411406408875786624990134 0.5055086906476542463195756
1.238491179094826311057886 -0.01666666666666666296592325 0.5088593591124213055820746
1.24027139685828480253349 0.002508383968740604541558525 0.5044296795562106527910373
1.24027139685828480253349 0.03584171730207393741229893 0.5044296795562106527910373
1.298447583404764404946263 0.0409585112421475411315086 0.5425109278373831944719541
1.296895166809528543439001 -0.01666666666666667684371106 0.5439268390258380492241486
1.298447583404764404946263 0.007625177908814205658682983 0.5425109278373831944719541
1.287744791307786407230651 -0.001634084336818217688194754 0.5393788756446042942371832
1.280146832401279244351144 0.01356183347619532852945667 0.5334150010749157955203259
1.294040200888246783250679 -0.04689516680952866833909098 0.541071873104556066991222
1.272630541236355217193932 -0.03186258447968021156881946 0.5253436366646170307959096
1.277373534221580175795907 -0.04689516680952866833909098 0.5284525453130236583021428
1.28488982538650420295312 0.03186258447968020462992556 0.5365239097233224230265591
1.26977557531507345700561 0.03496741767015154600528604 0.5224886707433351595852855
1.294040200888246783250679 0.04689516680952866833909098 0.541071873104556066991222
1.257516291164924249201817 0.003792106519705534199010666 0.511308397684629767354636
1.265032582329848498403635 -0.01450864448377934580458604 0.5193797620949285320790523
1.257516291164924249201817 -0.03280939548726421323143754 0.511308397684629767354636
1.307678537477114044662585 -0.04085802921705733448121123 0.5485365666941715012683289
1.306034418697299859246641 -0.01045156249538090921513689 0.5470731333883429581277369
1.307678537477114488751795 0.0199549042262955125814905 0.5485365666941715012683289
1.304570985391471538150654 -0.04707313338834309690561497 0.5455682389104807850088719
1.304570985391471538150654 0.04707313338834309690561497 0.5455682389104807850088719
1.301463433305828587549513 0.04113647782096196969803259 0.5425999111267902907940197
1.3029268666116569086455 0.01073001109928553922778782 0.5441048056046523528905823
1.301463433305828587549513 -0.01967645562239088083411609 0.5425999111267902907940197
0.7436354606219583995851963 0.01080638711354992183288903 0.5671709264915913983884366
0.737270921243916910192695 -0.01666666666666665602702935 0.5740386541787332319586312
0.7436354606219583995851963 -0.02252694621978341277257485 0.5671709264915913983884366
0.7242199699644116250851766 -0.009435235892343962760264731 0.5872709212439168879882345
0.7175335580629478293701595 -0.03003949046959421276259405 0.5936354606219584884030382
0.7175335580629478293701595 0.01116901868490628203789417 0.5936354606219584884030382
0.7309764509979183033649974 -0.03727092124391690602935867 0.5677441839327348471755386
0.7179254997184130182574791 -0.03727092124391690602935867 0.5809764509979182811605369
0.7179254997184130182574791 0.03727092124391691990714648 0.5809764509979182811605369
0.7309764509979183033649974 0.03727092124391691990714648 0.5677441839327347361532361
0.7763519627386697985471642 0.0001963654577544607414754663 0.5738444027190846563613036
0.7758232554626506294326305 -0.001253780009792568360740828 0.5745694754528580805441607
0.7744271057697790228147028 -0.00153851937595053797278033 0.5759656251457296871620883
0.7735596633529265853113088 0.000196365457754459765693511 0.5766367021048277585748565
0.7678838857895824432375775 -0.01811681213421369174287889 0.5666301057797898943491077
0.7623176079506910340910508 -0.03458711334312590535144949 0.5581985897175794075764088
0.7659955897075685360420039 -0.01840155150037165940335449 0.5709685086850022628368606
0.7589236624513528983726474 -0.03352969879108778916698697 0.5623580620528360052290395
0.7664877360967109476419523 0.01840155150037166981169534 0.5680262554726615009670354
0.7580562200345003498469509 0.03487185270928387648137203 0.5630291390119340766418077
0.7702569776237591092638013 0.0181168121342136986817728 0.5661379593906474827491593
0.7617889006746718649765171 0.03352969879108779610588087 0.5589236624513529427815683
0.770785684899778278378335 -0.01666666666666666296592325 0.5654128866568740585663022
0.7646906997848677001172746 -0.02634907687690275779335281 0.5577064433284368849541579
0.7646906997848677001172746 0.006984256456430580281558029 0.5577064433284368849541579
0.7575640736453579382470025 0.008407318578916880141838064 0.5659713922242748385116329
0.7651281472907159875163075 -0.00979786746370032816944029 0.5716395856441003342496288
0.7575640736453579382470025 -0.02800305350631753301127169 0.5659713922242748385116329
1.343577039155740893150437 0.01303905255711371169446977 0.5694620134013730350375226
1.337154078311481253393822 -0.01666666666666665602702935 0.5750965654342974353596674
1.343577039155740893150437 -0.02029428077621962464571759 0.5694620134013730350375226
1.328485517483994238219225 -0.0006704549883071961877481493 0.5791559724723014390690423
1.326239917500766640756638 0.003820744978147883053054557 0.5775808274773810424562726
1.315247377411303597583014 -0.0333618393049743694467324 0.5621398253256606469818735
1.330017924574717014252201 -0.03715407831148120204600716 0.5648528596118900235723004
1.320137931164840239262048 -0.01736562762661490733062664 0.5708083861531474401118658
1.320137931164840461306653 0.01736562762661491426952054 0.5708083861531475511341682
1.315247377411303597583014 0.0333618393049743694467324 0.5621398253256606469818735
1.330017924574717014252201 0.03715407831148121592379496 0.5648528596118900235723004
1.308111223674539136396788 -0.03999265682220740775187906 0.5518961195032533462168089
1.306899791092149820670443 -0.01045156249538091441930732 0.5537922390065067590469994
1.308111223674539136396788 0.01908953183144558932160528 0.5518961195032533462168089
1.311790344845686462349477 0.0006704549883072054034666154 0.5624607998339936631992941
1.317892331181612863844066 -0.01287442766015982689720154 0.5692332411582272655437009
1.381476324013052314754191 -0.01260728762073698612511397 0.5940836116337893102468115
1.37461274455584225862026 0.008893268980174704602115199 0.5881672232675785316757811
1.381476324013052314754191 0.03039382558108639012517393 0.5940836116337893102468115
1.368696356189631702093834 -0.03816722326757835542787589 0.5820260987566054922126568
1.368696356189631702093834 0.03816722326757835542787589 0.5820260987566054922126568
1.355916388366211089433477 0.01405219751321086160689156 0.5699685858794216741785021
1.361832776732422090049113 -0.007448359087700827385614133 0.5761097103903947136416264
1.355916388366211089433477 -0.02894891568861252331701372 0.5699685858794216741785021
0.6956297158239661548861932 0.02278651946792484977999393 0.6271568036439588711417059
0.6912594316479321321367024 -0.0166666666666666525575824 0.6320229755579285235711495
0.6956297158239661548861932 -0.01054681386540848482546995 0.6271568036439588711417059
0.6823663010786652494132909 -0.001119594471866956764127821 0.6412594316479320877277814
0.6778434546854322784170677 -0.02571235945313238291376479 0.6456297158239661104772722
0.6778434546854323894393701 0.02347317050939845897716829 0.6456297158239659994549697
0.6869569482094292078855347 -0.04125943164793208217666631 0.6277204921194257103422842
0.6780638176401622141398207 -0.04125943164793207523777241 0.6369569482094292744989161
0.6780638176401623251621231 0.04125943164793209605445412 0.6369569482094292744989161
0.6869569482094292078855347 0.04125943164793209605445412 0.6277204921194257103422842
0.7275923022366780346104065 0.0003985801031239918175083647 0.6228062778664460452660023
0.7265950861956820272524737 -0.002393012185116034831050547 0.6242020740105660436825019
0.7226701132390844772857008 -0.005456933728078889461743373 0.6281270469671633716046699
0.7197423563234830456991631 0.0003985801031240002742853101 0.6306562237796408121326408
0.7187109976951959744440046 -0.01945825895490669449339194 0.6163179855100798798517303
0.7137940896974619420234376 -0.03572634551844935946185444 0.6077853621251845250839096
0.7141374898541892335401826 -0.02252218049786955389457432 0.6270246341589311711572918
0.7091811582693046123182512 -0.03373191343645733780709506 0.6166113688459675667985493
0.7147860247385984244772317 0.02252218049786955389457432 0.6202429584666773187962008
0.706253401353703069709411 0.03879026706141222580193073 0.6191405456584450073265202
0.7216781781979479948319067 0.01945825895490668755449803 0.6156694506256706889146813
0.7127968736564659346655048 0.03373191343645733086820115 0.6091811582693045235004092
0.7226753942389440021898395 -0.01666666666666666990481716 0.6142736544815506904981817
0.7167612702002139624113397 -0.0237088903738946095434148 0.6071368272407753341468606
0.7167612702002139624113397 0.009624442959438723327325604 0.6071368272407753341468606
0.7056048664692938787723619 0.02031735488140497605802359 0.6259222213506988596876113
0.71120973293858757990904 -0.001806245513340577453845204 0.6295538109714085006629603
0.7056048664692939897946644 -0.02392984590808612879730966 0.6259222213506988596876113
1.383544981418175057186204 -0.01263974904981443603269042 0.6184684773902513477139564
1.391772490709087595206483 0.004238565701693715846720689 0.6122544269077648815269299
1.391772490709087595206483 -0.02951806380132258877946327 0.6122544269077648815269299
1.387885791865841600412068 -0.0335449814181748157126961 0.6102409680993386986713745
1.387885791865841600412068 0.0335449814181748157126961 0.6102409680993388096936769
1.379658282574929062391789 -0.01666666666666666296592325 0.6164550185818252758807034
1.383999093022595605617653 -0.007561749601650476389214095 0.6082275092909126268381215
1.383999093022595605617653 0.0257715837316828538794411 0.6082275092909126268381215
1.437941191722740708058836 -0.005001221086817103991806199 0.642942412809557994890497
1.429556976647033517124896 0.014216937865632148230155 0.6358848256191160785988359
1.437941191722740708058836 0.03343509681808139177849881 0.642942412809557994890497
1.422499389456591600833235 -0.03588482561911590651426707 0.6282892049513174592689779
1.422499389456591600833235 0.03588482561911592039205487 0.6282892049513174592689779
1.407057587190442049518424 0.006578409902634816189270772 0.6136359970930769236474589
1.414115174380883965810085 -0.01263974904981443082852 0.6212316177608754319550144
1.407057587190442049518424 -0.03185790800226367958103424 0.6136359970930769236474589
0.6828113930731443126376234 0.001431594067210222639280337 0.6686202009940657164932531
0.6799793920869796615136238 -0.007095596039539392614614588 0.6728837960474405299748923
0.6694656409018154841206183 -0.01393190633078900467212158 0.6847649274005435104939465
0.6617838907028159578516124 -0.03203016706466587509849475 0.6923824637002715665090591
0.6617838907028159578516124 0.004166354403087858815357691 0.692382463700271788553664
0.6725926279322577139296868 -0.02519385677341626564307298 0.6654970318927185823909554
0.6713170336627192202882952 -0.04042892937287272808744021 0.6564479015257801419735983
0.6620788767470935365366813 -0.03476492740054352298395557 0.6773781632458214518877071
0.6620788767470935365366813 0.03476492740054353686174338 0.6773781632458215629100096
0.6787037978174411678722322 0.02519385677341629339864859 0.6638346656805020895575353
0.6684850326765545691642956 0.03476492740054353686174338 0.6607114965791548444329351
0.6815357988036057079739294 -0.01666666666666664214924154 0.6595710706271272760758961
0.6774282035479025632085381 -0.01069066509899421237028694 0.6547855353135636491401783
0.6774282035479025632085381 0.02264266823433911529628304 0.6547855353135635381178759
1.445607636066812640152079 -0.0151944061111692844262544 0.6551284942109361075779361
1.447803818033406297871579 0.01374656328897678331246723 0.6536684425220911087706099
1.447803818033406297871579 -0.04413537551131535563442299 0.6536684425220911087706099
1.446578953632889019687013 -0.04560763606681272896992141 0.6529323122443423388361339
1.446578953632889019687013 0.04560763606681272896992141 0.6529323122443423388361339
1.444382771666295584012119 -0.01666666666666666296592325 0.6543923639331873376434601
1.445354089232371963547052 0.009824573932444881363412748 0.6521961819665935689016578
1.445354089232371963547052 0.04315790726577820729525925 0.6521961819665935689016578
1.499159846195280199054878 0.04513227028332118112574634 0.6959724240880406087583765
1.498319692390560620154361 -0.01666666666666664908813544 0.6967259813369409693351031
1.499159846195280199054878 0.0117989369499878430508355 0.695972424088040719780679
1.489226818959576981171722 -0.001519080195300760716126121 0.6907458991548776072733062
1.4809740993333129210896 0.01498635905722744444956707 0.6840122597239144397462951
1.49589798089510606082797 -0.048319692390560775585584 0.6943042698414864100087129
1.473400306097629952617467 -0.03317210591919487333578687 0.67565551657067945967583
1.479231314228439453373198 -0.04831969239056076170779619 0.6799674445061882899210559
1.486805107464122643889937 0.03317210591919489415246858 0.688324187659423269991521
1.470978594602175393291077 0.03485241352863410746465433 0.6732338050752249003494398
1.49589798089510606082797 0.0483196923905607894633718 0.6943042698414864100087129
1.457573793235682924063212 0.002991340750798154868306256 0.6605651339864810900337488
1.465147586471365892535346 -0.01519440611116928963042483 0.6689218771397160701042139
1.457573793235682924063212 -0.03338015297313672719026201 0.6605651339864810900337488
1.504059394814190042666269 -0.04515692304977825255463131 0.699216317863968428447663
1.50320522061114236755941 -0.01339095398850806417634374 0.698432635727936679259642
1.504059394814190042666269 0.01837501507276211726304993 0.6992163178639683174253605
1.502421538475110951438296 -0.04843263572793683746642301 0.6976226068103485999927216
1.502421538475110951438296 0.04843263572793686522199863 0.6976226068103483779481166
1.500783682136031416121114 0.04524521362069725688437316 0.6960288957567286605154777
1.501567364272063054286832 0.01347924455942707891442645 0.6968389246743169618270031
1.500783682136031416121114 -0.01828672450184311293330808 0.6960288957567288825600826
0.6756581232552125726442682 0.0003101004984090591980010199 0.7246519772431962991277032
0.6755616370014130289689547 -0.0005030730060081982108616261 0.7250585639954048033928302
0.6676800351257773380453386 -0.01526013074526306675937626 0.7336434338317421310904365
0.6598949195039411907970361 -0.03223689791033879092907455 0.7418217169158710655452182
0.6598949195039413018193386 0.001716636419812655025077253 0.7418217169158710655452182
0.6679337741277634465930646 -0.01747984017108391782691079 0.7174307011217552210169401
0.6608127707131644656968206 -0.03383640633934152652795291 0.7089423175392175480169499
0.6600521722521277556694486 -0.03364343383174238366617459 0.7260155709580927707591513
0.6600521722521279777140535 0.0336434338317423975439624 0.7260155709580928817814538
0.6684406335868140480727106 0.01747984017108392823525165 0.7165701804128670193705375
0.660716284459364922021507 0.0336434338317423975439624 0.7093489042914262743266818
0.6685371198406135917480242 -0.0166666666666666594964763 0.7161635936606582930608056
0.6613196301722150671764666 -0.03009549999144747745027928 0.7080817968303290133036398
0.6613196301722150671764666 0.003237833341885855854141996 0.7080817968303290133036398