# geometry NO_DATA 364
#  x  y  z
0.5339419406368877130120154 0.01428713532660078229519218 0.3815349603597460448334289
0.5419709703184438787104682 0.03156240929682183754545477 0.3889828316748236147759599
0.5419709703184438787104682 -0.002988138643620290302305165 0.3889828316748236147759599
0.5290680812274295430341908 -0.01422233148401623459289311 0.39329041271144571378926
0.5245984215465462341398961 0.005691827272208450222423792 0.3865808254228914053740596
0.5290680812274294320118884 0.02560598602843315585442241 0.3932904127114456582781088
0.5330890342093199674167181 -0.01749460772053142501580858 0.3824804269057657801766936
0.5415320344178087275111011 -0.03394194063688771301201541 0.3897336614442212798792298
0.5311609845127638340755993 -0.02013349250653508060171504 0.3844084766023219690289636
0.5341165650240233819801006 -0.03658082542289137206736882 0.3928514768108105070787417
0.5311609845127638340755993 0.02013349250653508754060894 0.3844084766023219690289636
0.5341165650240233819801006 0.03658082542289135125068711 0.3928514768108104515675905
0.5330890342093199674167181 0.01749460772053147705751286 0.3824804269057657801766936
0.5415320344178086164887986 0.03394194063688774770648493 0.389733661444221335390381
0.5254989404283990639399349 -0.0002193337503103526351516672 0.374281725821290378597439
0.5250849699014665805663071 0.0006086073035544310987771111 0.3744763625979124488374339
0.5231569202049104472251884 0.003247492089558041798713628 0.3764044122944686376897039
0.5216428410352866862353949 -0.0002193337503103951900869373 0.3781378252144028673242815
0.5846195844666461916006028 0.01333755281180320009792872 0.3803825252725885897042701
0.5923097922333231402092224 0.03129047061178283350990625 0.3876944272451466888540494
0.5923097922333231402092224 -0.004615364988176440252942712 0.3876944272451466888540494
0.5822781956536026148896212 -0.01889499011086312810214771 0.3809919445202895049717995
0.5910825651423776694315393 -0.03461958446664628596955993 0.3881317570816329998173444
0.5733017367536128450211663 -0.03427540564421682756091059 0.3887786377502464585376174
0.5733017367536127339988639 0.0342754056442168483775923 0.3887786377502464585376174
0.5822781956536025038673188 0.01889499011086315585772333 0.3809919445202895049717995
0.5910825651423775584092368 0.03461958446664630678624164 0.3881317570816329443061932
0.5758152149778712480809872 -0.0009420723108834879681167118 0.3732427127112452058810277
0.5747010532557730311253863 0.001286251133312989094331646 0.3734148021224599212075645
0.5657245943557831502346289 0.01428713532660077015212785 0.3812014953524168747733825
0.557862297177891597321775 0.03189587430415094515545604 0.388816099171159001990361
0.557862297177891597321775 -0.003321603650949409188009032 0.388816099171159001990361
0.6340490332998985900658795 0.01527049248510019274771565 0.3819195462759848447298339
0.64202451664994930613517 0.03265285911833212817434458 0.389912642501817618967408
0.64202451664994930613517 -0.002111874148131746148360222 0.3899126425018175634562567
0.6321321816766324319658565 -0.01843866985089446380863265 0.3814164817100672566496655
0.6409936666187970866204182 -0.03404903329989859839255217 0.3895798795614485721117148
0.6234409983600164295580726 -0.03438963655099585431385023 0.3884431080992515328276227
0.623440998360016540580375 0.03438963655099586819163804 0.3884431080992515328276227
0.6321321816766324319658565 0.01843866985089447421697351 0.3814164817100672566496655
0.6409936666187970866204182 0.03404903329989860533144608 0.3895798795614485721117148
0.6251875483577339354113178 -0.001056303217662525779918514 0.3737561484246034737566333
0.6243015467656201078483491 0.0007156999665652808090623993 0.3735858467990548215098556
0.6156103634490041054405651 0.01333755281180318968958787 0.3806124731882390976878128
0.6078051817245020416180523 0.0310605226961323845069618 0.3878094012029720261125476
0.6078051817245020416180523 -0.004385417072526008597233016 0.3878094012029720261125476
0.6593881856527583629201672 -0.03717256149370141982135607 0.3965607471464596689436632
0.6598529721066894726533292 -0.01071773386744858877483999 0.3931214942929194267051685
0.6593881856527583629201672 0.01573709375880423880222914 0.3965607471464597244548145
0.6564137192531492859259856 -0.04312149429291948360409847 0.3958626600556764962846046
0.6564137192531492859259856 0.04312149429291950442078019 0.3958626600556765517957558
0.653439252853540208931804 0.04172532011135302726367868 0.3951645729648932681143947
0.6568785057070805066814501 0.0152704924851001962171626 0.3924234072021362540461098
0.653439252853540208931804 -0.01118433514115263482935347 0.3951645729648932126032435
0.4896037156111792687518403 0.003499824243554864548061412 0.4204795298439313322447219
0.4948018578055896066203445 0.02643687318806758196343409 0.425364633104631961746378
0.4948018578055896066203445 -0.01943722470095779475407483 0.4253646331046319062352268
0.4768791141105659936449968 -0.01762490614007263672879944 0.4445040202506386206593447
0.4716835266793248937489125 0.004716467694538148576477443 0.4390080405012773412387617
0.4768791141105659936449968 0.02705784152914891133034914 0.4445040202506386206593447
0.4852756212609313779537956 -0.02369277637639694705784521 0.4290052389830854018271111
0.4939868183102068543988139 -0.03960371561117938254970028 0.4311330148208049051206103
0.4793030765380362767658085 -0.02309710126649499109530161 0.4349777837059803919927958
0.4820391741012475250727221 -0.03900804050127743005660363 0.4436889807552558129266629
0.4793030765380362767658085 0.02309710126649501885087723 0.4349777837059805030150983
0.4820391741012475250727221 0.03900804050127745781217925 0.4436889807552558684378141
0.4852756212609313224426444 0.02369277637639689154669398 0.4290052389830854018271111
0.4939868183102067988876627 0.03960371561117932703854905 0.4311330148208050161429128
0.480892518561903792306822 -0.0007557274318842864546663662 0.4183517540062118289512227
0.4773794637070386537303079 0.006270382277845994167808641 0.4211090814291927331147747
0.4714069189841435525423208 0.005674707167944119737268416 0.4270816261520877787916106
0.4689474291161136454419989 -0.0007557274318842031879395194 0.4302968434520019203048946
0.5261523283273691342643019 -0.04001696897416890524867839 0.4149730813579314281369648
0.5149730813579315169548067 -0.04001696897416891218757229 0.4250563268130422844848226
0.5149730813579315169548067 0.04001696897416884973752715 0.4250563268130425065294276
0.5261523283273691342643019 0.04001696897416884973752715 0.4149730813579315946704185
0.527350009451790779912983 -0.01765847503529377471309658 0.4049915155129155674984531
0.5211622779952687078974805 0.005691827272208406854336893 0.4099830310258311127924458
0.527350009451790779912983 0.02904212957971065434126245 0.4049915155129156230096044
0.5099830310258310905879853 0.00349982424355486107861446 0.4200662764809418581180012
0.5049915155129155452939926 0.02685012655105710813185915 0.4251580064231372801941689
0.5049915155129155452939926 -0.01985047806394732439194684 0.4251580064231371136607152
0.6886884620787256938712062 0.006610441029500925026740621 0.4229500917693582717760137
0.6943442310393629357534451 0.02863223644155983571568669 0.4289328766568048512120015
0.6943442310393629357534451 -0.01541135438255797351914111 0.4289328766568048512120015
0.6806520307723051832482497 -0.03868846207872556758333715 0.4172943228087210298937748
0.6806520307723051832482497 0.03868846207872556758333715 0.4172943228087211409160773
0.6749962618116680523883133 -0.0166666666666666664353702 0.411311537921274450457787
0.6669598305052476527876593 -0.0220292717887230239670604 0.4056557689606371530643969
0.6669598305052476527876593 0.01130406154461030023006263 0.4056557689606372640866994
0.7276758119656641099481931 0.004287727870703620172698756 0.4266119159050394404886219
0.729553701885859773312859 -0.0005319480303122991896383476 0.429021753855547416378613
0.7265731403934465593152936 -0.005429174954514089448953662 0.4376210612040368763686615
0.7217146889808376819530622 -0.02638356949188438299591652 0.4438105306020184159798703
0.7217146889808377929753647 0.01552521958285616940353968 0.4438105306020184159798703
0.7255153260532209991140462 -0.008608699695589996231381846 0.4249833780229086421798002
0.7169160187047315391239977 -0.02474341833194432932474527 0.4285545725528152605221521
0.7160959431247615469828816 -0.03762106120403692355314007 0.4387824177834356298433249
0.7169160187047315391239977 0.02474341833194435708032088 0.4285545725528152605221521
0.7160959431247615469828816 0.03762106120403696518650349 0.4387824177834356298433249
0.7255153260532209991140462 0.008608699695590015313340082 0.4249833780229086421798002
0.7236374361330253357493802 -0.003789023794574076543784091 0.4225735400724006662898091
0.7214769502205822249152334 0.0005319480303123182715965833 0.4209450021902698679809873
0.7128776428720927649251848 0.006610441029500924159378883 0.4245161967201763753010368
0.7064388214360464157692832 0.02706613149074166280172449 0.4297159291322139029745131
0.7064388214360464157692832 -0.01384524943173980407462587 0.4297159291322139584856643
0.4418293467469049939921888 0.02482809968503212755264187 0.4829987529381269961703538
0.4336586934938099213709961 -0.01666666666666667684371106 0.479243396589421166709144
0.4418293467469049939921888 -0.008505233648301201848651587 0.482998752938127051681505
0.4327474219994850157533506 0.0148441236780166782582846 0.4836586934938100768022196
0.440006803758255016223444 -0.002147903149126764808102275 0.4918293467469050384011098
0.440006803758255016223444 0.03183615050516012956460798 0.4918293467469050384011098
0.4414502262446334812651116 -0.03365869349381012121114054 0.4870349293402446155809571
0.4405389547503085201363149 -0.03365869349381011427224664 0.4914502262446335256740326
0.4405389547503085201363149 0.03365869349381010733335273 0.4914502262446335256740326
0.4414502262446334812651116 0.03365869349381010733335273 0.4870349293402445600698059
0.4765848902867665382032669 -0.0394017518884849093918632 0.4658933231061642143977508
0.4658933231061641588865996 -0.0394017518884849093918632 0.4781446928684419117594473
0.4658933231061640478642971 0.03940175188848493020854491 0.4781446928684417452259936
0.4765848902867664271809645 0.03940175188848493714743881 0.4658933231061640478642971
0.476682258416962323366306 -0.018018617527280116064059 0.4552991240557574537106689
0.4712898152921173311469261 0.004716467694538148576477443 0.4605982481115149518302587
0.4766822584169621568328523 0.0274515529163563906656087 0.4552991240557574537106689
0.4605982481115149518302587 0.007836072857888714410234954 0.4728496178737926491919552
0.4552991240557574537106689 0.030571158079706953897281 0.4798018635803127374117594
0.4552991240557574537106689 -0.01489901236392954936293975 0.4798018635803128484340618
0.7393330694119590873469861 0.006771305821638129093797964 0.4723859168321933310608074
0.744666534705979543673493 0.02943770856693044349339239 0.4787714377823251155064099
0.7446665347059793216288881 -0.01589509692365423734750074 0.4787714377823252265287124
0.7336186138953890711889017 -0.03933306941195897910024115 0.4670524515381728747343004
0.7336186138953891822112041 0.03933306941195903461139238 0.4670524515381727082008467
0.7282851486013686148623947 -0.01666666666666661439366592 0.4606669305880409237552442
0.7225706930847987097266127 -0.01609610554255509057286488 0.455333465294020411917586
0.7225706930847988207489152 0.01723722779077824229787552 0.455333465294020411917586
0.7751622134919965434463052 0.0001734927544031692457117411 0.4750112792624069379954221
0.7752112263118007273732246 -7.546711479464813989576077e-05 0.4751357591970058469321714
0.7678392306439498771197805 -0.01466852422090674824828316 0.4835068260877364854088967
0.7604182221562948429394169 -0.03150868364197657867098457 0.4917534130438682149488727
0.7604182221562949539617193 0.002171635200163087378588678 0.4917534130438682149488727
0.7745818879374712917496026 -0.001334143863453447504535676 0.4745064208226764668197006
0.7662108210467405422505749 -0.01792534341532546482422816 0.4779298072908928496360659
0.7594191509334149436938333 -0.03350682608773650206224204 0.4868057326213539592885127
0.7662108210467405422505749 0.01792534341532548217146292 0.4779298072908927386137634
0.7594191509334149436938333 0.03350682608773650900113594 0.4868057326213538482662102
0.7745818879374712917496026 0.001334143863453463984408698 0.4745064208226764113085494
0.7745328751176671078226832 -0.0010851839942556302815585 0.4743819408880775023718002
0.7739525495631418561259807 7.546711479466443003340237e-05 0.4738770824483469756849274
0.7655814826724111066269529 0.006771305821638090929881493 0.4773004689165634140124439
0.7577907413362054978023252 0.02452315648256039176677845 0.4812287138245102124933794
0.7577907413362053867800228 -0.0109805448392842220500798 0.4812287138245102124933794
0.4383803293072432438748365 -0.003796505892143276286732068 0.5421768351993863088722492
0.4309249118545418477665976 0.01389049783996311113187794 0.5343536703987729064024848
0.4383803293072432438748365 0.03157750157206949681576447 0.5421768351993863088722492
0.4393112198985301697362615 -0.03410635867417522587574652 0.5235558247261883346723721
0.4313789895268019813912019 -0.01846002907294827868889264 0.5323993265922415396573797
0.4387107511172044782554735 -0.03435367039877304518036283 0.54111917259599584539842
0.4313789895268019813912019 0.01846002907294828215833959 0.5323993265922415396573797
0.4387107511172044227443223 0.03435367039877304518036283 0.54111917259599584539842
0.4393112198985301697362615 0.03410635867417523281464042 0.5235558247261883346723721
0.4394576110075957275924452 -0.002595568329491876845283027 0.5079468206629123017137317
0.4316490364981664940025041 0.01484412367801668693190198 0.5158936413258246034274634
0.4394576110075957275924452 0.03228381568552525504589568 0.5079468206629123017137317
0.4237168061264383056574445 0.001020337065439723585325016 0.524737143191877808412471
0.423593150264139350902326 -0.000773025340841894522889155 0.5256338243950186006614445
0.776938617707718770510894 0.001585283880848487080353348 0.5246466661731296055037888
0.7771582717644955895508474 -0.001145975767294527859763154 0.5260122959972011180695972
0.7699579914790845025507338 -0.01325458480352792803302897 0.5349186172141817685599108
0.7625380571368962634437594 -0.03150653535104308566872078 0.5424593086070907954621134
0.7625380571368962634437594 0.004997365743987227000577622 0.5424593086070907954621134
0.7694193931617477888451617 -0.01939792631480968115864627 0.5182734173944532063416091
0.7612924891108702185604784 -0.03447930910062785986314182 0.5091474421206956257890397
0.7622191128763367018450481 -0.03491861721418181713216811 0.5271797386114337458096202
0.7622191128763364798004432 0.03491861721418182407106201 0.5271797386114337458096202
0.7690313677136180192661641 0.01939792631480968462809322 0.5168863207234435375170278
0.7615121431676472596450367 0.03491861721418182407106201 0.5105130719447671383548482
0.7688117136568412002262107 -0.01666666666666666296592325 0.5155206908993720249512194
0.7609044636627404489814808 -0.03018921512027888942597542 0.5077603454496859569644585
0.7609044636627404489814808 0.003144118213054447781573675 0.5077603454496859569644585
0.4401663349889967102868127 -0.001793018886693766109768911 0.5919593538756905415354481
0.4321441366809625206357737 0.01545902219802068079668178 0.5839187077513809942530543
0.4401663349889967102868127 0.03271106328273513247362203 0.5919593538756906525577506
0.4390260398410430475735211 -0.03415143009575176413772368 0.5737474575877281601776758
0.4317881037120375187221555 -0.018070137847132884678647 0.5823734781300853313723564
0.4399266631922571502144592 -0.03391870775138111637758698 0.5911158598446278888971506
0.4317881037120375187221555 0.01807013784713289161754091 0.5823734781300853313723564
0.4399266631922570391921568 0.03391870775138111637758698 0.5911158598446278888971506
0.4390260398410429365512186 0.03415143009575177107661759 0.5737474575877280491553734
0.43848144945875389133505 -0.003594265589121992208326839 0.5579242849521239833165964
0.4311271521575630871758733 0.01389049783996310939715446 0.5658485699042481442688768
0.43848144945875389133505 0.03137526126904820883423142 0.5579242849521239833165964
0.4238892160285576693468101 0.0005853744180477841573678743 0.5744745904466054264858599
0.4240055772007429446546212 -0.0008180967624184382058771803 0.5751763260368385477505626
0.7771735728271350618356905 0.001130089982303477411443304 0.5739565171551683775419406
0.7769343539002951937177954 -0.001608527835983439811806672 0.5753258260643118182642297
0.7689727441717140177246392 -0.01431469162117864762917563 0.5844634233156368319228591
0.7612503533699730429162855 -0.03211144827014878605497827 0.5922317116578184048591993
0.7612503533699730429162855 0.003482065027791501204967872 0.5922317116578184048591993
0.769236887648928502336787 -0.01940528448495357910497106 0.5676283598129450158609188
0.7620445502560128092639502 -0.03494186116931677354990882 0.558729981488459981342487
0.7612752779203475483882357 -0.0344634233156368013917259 0.5767659570642701405418507
0.7612752779203475483882357 0.0344634233156368152695137 0.5767659570642701405418507
0.7697420165073793896226562 0.01940528448495358604386496 0.5664274477398266727234954
0.7618053313291728301237526 0.0344634233156368152695137 0.5600992903976034220647762
0.7699812354342194797851562 -0.0166666666666666664353702 0.5650581388306832320012063
0.7625496791144638075721218 -0.02831272363421115378923076 0.5575290694153416382050636
0.7625496791144638075721218 0.005020609699122183418318333 0.5575290694153416382050636
0.4435105882311902725234631 -0.01130573960374967913689037 0.6091698753002681154811171
0.4467552941155950585461198 0.01553818196077404178989667 0.6086056329473220616321782
0.4467552941155951140572711 -0.03814966116827329944971581 0.6086056329473219506098758
0.4461514718812721325136295 -0.04351058823119037521909291 0.6059251694158632739473092
0.4461514718812720770024782 0.04351058823119029195236607 0.6059251694158636070142165
0.4429067659968672909798215 -0.01666666666666676011043791 0.6064894117688096608631554
0.4455476496469490954588366 0.008969610429210975177660714 0.6032447058844049303516499
0.4455476496469490954588366 0.04230294376254430110950722 0.6032447058844049303516499
0.4795195284670315527542073 -0.01468723683384220296543887 0.6442067653008738403741518
0.4734496162822051101848331 0.007059627101238687314765929 0.6384135306017475475215406
0.479519528467031719287661 0.02880649103631963137139849 0.6442067653008738403741518
0.4676563815830788173322219 -0.03841353060174760442047059 0.6302205621656656875373415
0.4676563815830789838656756 0.03841353060174755584821327 0.6302205621656657985596439
0.4557932346991261374213877 0.01044112433133130915519082 0.6162343590304576457228336
0.4615864693982523747628477 -0.01130573960374963229935652 0.6244273274665396167293352
0.4557932346991261374213877 -0.03305260353883052171219958 0.6162343590304575347005311
0.7469846418510617258590401 0.03119925441970979734795932 0.6342146125686478619343234
0.743969283702123673762685 -0.01666666666666673929375619 0.6375842690609168084137082
0.7469846418510617258590401 -0.002134078913623532920695869 0.6342146125686479729566258
0.7379279905132174466331207 0.004584080288853903395462908 0.643969283702123806989448
0.7349020554732492715999115 -0.02271853674660311711575034 0.646984641851061859085803
0.734902055473249160577609 0.03188669732431100023450909 0.6469846418510617480635005
0.7409550453286035676114807 -0.04396928370212375980496944 0.6345700306873967022625038
0.7349137521396974515042189 -0.04396928370212375980496944 0.6409550453286035898159412
0.7349137521396971184373115 0.0439692837021236904160304 0.6409550453286033677713363
0.7409550453286035676114807 0.0439692837021236904160304 0.6345700306873964802178989
0.776245087155112978294369 0.0004666156472046570314812786 0.6242215284920917817146346
0.7759725053129600258472465 -0.001011779331510624484191663 0.6249607259814493609439978
0.7706481274457708252612065 -0.009636976402867621430137213 0.6302851038486384505077353
0.7655963314207347991668939 0.0004666156472045792941855114 0.6348702842264698498198072
0.76795129251145555215885 -0.01814506164538194979418684 0.6169395131799448872556013
0.7605606388772638837281193 -0.03434511266484394781395295 0.608372872023009270137095
0.7620814862888352081427001 -0.02677025871673895107694108 0.6320001147171625532905637
0.7591120695123667605486162 -0.03379994898053799434745059 0.6193937215378266802900953
0.76262691464426635157281 0.02677025871673886087132033 0.6222638910471338657970364
0.7540602734873307344543036 0.0429703097362008692994273 0.6239789019156579685798647
0.7685818516787682463942133 0.01814506164538194632473989 0.6163940848245137438254915
0.7602880570351109312809967 0.0337999489805380012863445 0.6091120695123668493664582
0.7688544335209213098636383 -0.0166666666666666664353702 0.6156548873351561645961283
0.7611911980445765779634826 -0.02996957895633469565188634 0.6078274436675781267069851
0.761191198044576688985785 0.003363754376998639387258416 0.6078274436675781267069851
0.7535148451318995910241938 0.03020028045378697623135622 0.6337151255856864340287871
0.7570296902637991820483876 0.003896637384252694437380971 0.6365852950949938415803331
0.7535148451318995910241938 -0.02240700568528150582459091 0.6337151255856865450510895
0.4937851511106178259424837 0.01487749303070124741454894 0.6710923419200832684694547
0.4875703022212358739295723 -0.01666666666666669419094582 0.6762238976259685729885973
0.4937851511106178259424837 -0.01845584030263208719091494 0.6710923419200833794917571
0.478956791228023592843499 -0.0005603553197577292033226826 0.6795171465477812811073477
0.4765581291241934303037908 0.004236968887902519548260827 0.6776788397637087957292579
0.4787531501136145228869623 -0.02469393131648116301857243 0.6668900032296619651006608
0.4889816313279038983985458 -0.0375703022212358905829177 0.6657720798486839175467367
0.4749431589031163358782806 -0.008587619969572198030949295 0.6755035142228741351644317
0.4749431589031163358782806 0.008587619969572104355881592 0.6755035142228741351644317
0.478753150113614689420416 0.02469393131648108322129254 0.6668900032296619651006608
0.4889816313279039539096971 0.03757030222123586282734209 0.6657720798486839175467367
0.4801644792202826583782382 -0.01339733532733986681728666 0.6564381854523773096588002
0.4747395177887073769440462 0.007059627101238682977957239 0.6628763709047547081354423
0.4801644792202828249116919 0.02751658952981728828435237 0.6564381854523773096588002
0.4709295265782090789130621 0.0005603553197576346608932418 0.6714898818979668781992132
0.4725444967992862288497236 -0.003790295761911950146727524 0.6736652074388016497863418
0.5290695413502704003150257 -0.01542319864162376708005553 0.6944927399918943144996319
0.5227956606872937728169859 0.006895614675498096257655334 0.68898547998378845136358
0.5290695413502704003150257 0.02921442799261999082038876 0.694492739991894092455027
0.5172884006791880207032364 -0.03898547998378855405920973 0.6831463353966269469452754
0.5172884006791880207032364 0.03898547998378853324252802 0.6831463353966269469452754
0.5055072600081056410914471 0.01629267079325391609501139 0.671799930801359579390919
0.5110145200162113932051966 -0.006026142523867979335083778 0.6776390753885213058538284
0.5055072600081056410914471 -0.02834495584098984527487985 0.6717999308013596904132214
0.6974948245800238755265354 0.03494620154593870015036217 0.6874513769659145179247162
0.694989649160047573417387 -0.01666666666666647561578785 0.6899679253529928946164773
0.6974948245800238755265354 0.001612868212605369448026105 0.6874513769659144069024137
0.6898493580930257218497559 0.006386084532623424736552664 0.6949896491600476844396894
0.6872142424459799503466684 -0.02193689796075775494399451 0.6974948245800236534819305
0.6872142424459802834135758 0.03470906702600443094475224 0.6974948245800238755265354
0.6924846252266189106094885 -0.04498964916004766223522893 0.6874629014195644538531837
0.6873443341595969480195549 -0.04498964916004764835744112 0.6924846252266192436763959
0.6873443341595975031310672 0.04498964916004785652425824 0.6924846252266192436763959
0.6924846252266192436763959 0.04498964916004785652425824 0.6874629014195647869200911
0.7360119993994667098036189 0.0008453658449544103076905843 0.6648333664454875169269599
0.731140024083449135972046 -0.01058931647698959678527419 0.6705507076064596283515584
0.7200393277031214012140481 -0.01161207628366606355030388 0.6816514039867875851541612
0.7138106066388109072207158 0.0008453658449546722509354568 0.6870347592061432084875605
0.7232369084732016562000467 -0.02810134898861074703724228 0.6626475919962119265349543
0.7251062656951514640013556 -0.04392264981032291404350332 0.6538915757404013540110554
0.7112833114473107176678468 -0.02912410879528721380227196 0.6845403305905888302618223
0.7096089169013733988222725 -0.03417869917828782189150871 0.6712538597609853940895164
0.7121362120928735883751415 0.02912410879528740115240737 0.6737482883765398833375571
0.7033801958370631268735451 0.04494540961699958203645622 0.6766372149803412394675206
0.7330093813053989437733549 0.02810134898861066723996238 0.6617946913506490558276596
0.7202342903791336681251778 0.03417869917828782189150871 0.659608916901373465435654
0.7378813566214166286272302 -0.01666666666666674276320315 0.6560773501896770554253635
0.7348787385273487515746638 -0.001493269900823171458803529 0.6530386750948384833037608
0.7348787385273487515746638 0.03184006343251016141193688 0.6530386750948384833037608
0.702527295191500145143948 0.03490196200289042566256015 0.6874292571943905194586932
0.7050545903830004457191194 0.006623219052557700881056491 0.689923685809944786662129
0.702527295191500145143948 -0.02165552389777520431168867 0.6874292571943902974140883
0.5419157390033831900311156 0.003020091659341683169165416 0.7111043526559583938251308
0.5338314780067664466756128 -0.01666666666666664214924154 0.7184257848330541929016135
0.5419157390033830790088132 -0.03031324167399164840053238 0.7111043526559585048474332
0.5254029507205195681507348 -0.0001903879058269162204662661 0.7255933386263466733367977
0.5250586844308895440036622 0.0004981446734331290921229951 0.725439460242543798784709
0.5275717300282972699321249 -0.01941511063243627280283654 0.715790589357215178978322
0.5370302130077988511658305 -0.03383147800676641892003715 0.7098433791630043288023444
0.5240287287376348412948346 -0.002938831871596542591462686 0.7242191166434619464808975
0.5240287287376348412948346 0.002938831871596579020655682 0.7242191166434619464808975
0.5275717300282973809544274 0.0194151106324362970889652 0.7157905893572149569337171
0.5370302130077988511658305 0.03383147800676644667561277 0.7098433791630041067577395
0.5307704650293296744223426 -0.01202135128350505406669146 0.7072081836871650928344479
0.5261975080454124320539222 0.006895614675498125747954425 0.7144163673743302300778169
0.530770465029329785444645 0.02581258063450130729732379 0.7072081836871650928344479
0.5226545067547500034166319 0.0001903879058269524870289358 0.7228448946605772196249973
0.523684462448004817147762 -0.002250299292336496899402665 0.7240652382596588498842038
0.5926549939000413935730194 0.006085740359824736052385408 0.7134307464597832160180246
0.5853099878000826983281968 -0.0166666666666666525575824 0.7206978640799537316752321
0.5926549939000413935730194 -0.02724759297350860115516369 0.7134307464597832160180246
0.5762613610191611446254001 -0.001430586895176650438082921 0.7276919479143375557583795
0.5745577403381979531005186 0.001976654466749388702750956 0.7274189141285513082735292
0.5777380605443791505848594 -0.03530998780008268861374532 0.7131259368242501839318948
0.5669397004524530103708457 -0.02007390802859268519320324 0.7196312608405839306158214
0.5610713938777125431300874 -0.03530998780008268167485141 0.7123323673706668524019392
0.5686894337634574858597603 0.02007390802859272682656666 0.7201200206586342300596471
0.5593677731967494626275084 0.03476392022851002017169719 0.7120593335848802718501815
0.5777380605443791505848594 0.03530998780008270943042703 0.7131259368242501839318948
0.5576180398857449871385938 0.003952533881085251027398542 0.7115705737668300834286583
0.5652360797714899298682667 -0.01414471968075808362697021 0.7193582270547975721086686
0.5576180398857448761162914 -0.03224197324260142522023287 0.7115705737668301944509608
0.6422908880773023909682706 0.003793703477044408581969615 0.7115028153997420279353037
0.6345817761546046487097783 -0.01666666666666667684371106 0.7191877398158246226245183
0.6422908880773023909682706 -0.02953962985628892992662209 0.7115028153997420279353037
0.625243079564403392289762 -0.002010726513735920997771878 0.727253806078139497515167
0.6236134948968997671059356 0.001248442821271345416073162 0.7276349479243716666942987
0.6269013169512602789978928 -0.03458177615460469866981441 0.7115072806124800308680278
0.6162855248204343050488774 -0.01992583600167394108915175 0.7203507942807079178493268
0.6102346502845934494985158 -0.03458177615460469866981441 0.7122891932311310458914022
0.617562620361058911555574 0.01992583600167392374191699 0.7195733468747947947363741
0.6086050656170899353369919 0.0353440598470692451948949 0.7126703350773634371151388
0.6269013169512601679755903 0.0345817761546046847920266 0.7115072806124800308680278
0.6073279700764654398525977 0.006119812406811267480044592 0.7134477824832765602280915
0.6146559401529307908873534 -0.01255758077359131127948011 0.7207319361269403090730634
0.6073279700764653288302952 -0.03123497395399388656955786 0.7134477824832765602280915
0.6865869288201127407234026 0.0005238863425527002810194732 0.7139369575224394637302794
0.6811863791669706680309559 -0.01132498564883657049540133 0.7198613935181340517388549
0.6749197450591701841204895 -0.001208282566764106759349406 0.7261280276259345356493213
0.6740536606045118839247721 0.0005238863425525141235064575 0.7264702257380403205289099