# geometry NO_DATA 636
#  x  y  z
0.4988875799980430070235116 0.04332547998825823920565625 0.2444378999902151738954359
0.4977751599960860140470231 -0.01666666666666666990481716 0.2455503199921721668719243
0.4988875799980430070235116 0.009992146654924908069639322 0.2444378999902152016510115
0.4954677599431310253130789 0.01205186656075657621045583 0.2477751599960860695581744
0.4942727798921329740444719 -0.01905662676866283836152327 0.2488875799980430347790872
0.4942727798921329185333207 0.04316035989017600466022273 0.2488875799980430347790872
0.4966627399941290765816859 -0.04777515999608608621151973 0.2444378999902152016510115
0.4943553399411740878477417 -0.04777515999608609315041363 0.2466627399941291320928372
0.4943553399411740323365905 0.04777515999608609315041363 0.2466627399941291320928372
0.4966627399941290765816859 0.04777515999608608621151973 0.2444378999902151738954359
0.5430036388336241248708802 0.008021833001745316479857983 0.2150181941681210961991866
0.5360072776672484273774444 -0.01666666666666666296592325 0.2220145553344968769593493
0.5430036388336241248708802 -0.02531150033158800771726504 0.215018194168121068443611
0.5204530310025387018768583 -0.0144418266627527550755028 0.2348948576652915010143374
0.5118951455042047848920106 0.00267394433391509884351267 0.2407787988297103165535873
0.5290109165008726188617061 -0.03600727766724842737744439 0.2150181941681210961991866
0.5107827255022476808932197 -0.03378243766333452469119436 0.2396663788277533513326745
0.5123442498342060114069341 -0.03600727766724843431633829 0.2267860764969587550332619
0.51345666983616289336112 0.03378243766333451775230046 0.2278984964989156924985991
0.5037863643358720944220863 0.04777515999608608621151973 0.2326700176613775428169362
0.5290109165008727298840085 0.03600727766724843431633829 0.2150181941681210961991866
0.501112420001956881954186 0.04332547998825823920565625 0.2444378999902152016510115
0.5022248400039137639083719 0.01221698665883882289895368 0.2455503199921721668719243
0.501112420001956881954186 -0.01889150667058059340774889 0.2444378999902152016510115
0.5924892394566837472424936 0.004935436740102977677679963 0.2124461972834191247905267
0.5849784789133676277117502 -0.01666666666666666990481716 0.2199569578267352998324213
0.5924892394566837472424936 -0.02839789659323035259097523 0.2124461972834191247905267
0.575308173413076717750414 -0.002673944333915109251853526 0.2279821177469918414004724
0.5731486284561018162975188 0.001645145580034323507315208 0.2284965171239322079266287
0.5774677183700515081810067 -0.03497847891336766656955604 0.2124461972834191247905267
0.5661522672897262298263854 -0.02098575658061609464088981 0.2215001559575564549220417
0.5608010517033847897039323 -0.03497847891336765963066213 0.2134749960372999133539906
0.5677974128697604871973681 0.02098575658061609464088981 0.2204713572036756663585777
0.5586415067464099992733395 0.03600727766724843431633829 0.213989395414240279880147
0.5774677183700515081810067 0.03497847891336765269176823 0.2124461972834191247905267
0.5569963611663757419023568 0.008021833001745314745134507 0.2150181941681210961991866
0.5639927223327514393957927 -0.01131877799883645313583358 0.222014555334496821448198
0.5569963611663757419023568 -0.03065938899941821754735471 0.215018194168121068443611
0.6427887122867274038995333 0.006732273720365391025954871 0.2139435614336378244093595
0.6355774245734548966169086 -0.01666666666666666296592325 0.2211548491469102484252574
0.6427887122867274038995333 -0.02660105961296793664061511 0.2139435614336378244093595
0.62642151845010440869288 -0.001645145580034330663049547 0.2280666640301389769263096
0.6244769000400263170291737 0.002244091240121793250084092 0.2277671912000952536558884
0.6283661368601826113788889 -0.03557742457345512698818624 0.2139435614336378244093595
0.6169661394967103085207327 -0.02055590348682279078218471 0.2202564306567790508584181
0.6116994701935158929018144 -0.03557742457345512698818624 0.2133446157735503778685171
0.6192102307368321234548603 0.02055590348682279078218471 0.2208553763168665251548362
0.609754851783437801238108 0.03497847891336766656955604 0.2130451429435066545980959
0.6283661368601825003565864 0.03557742457345512698818624 0.2139435614336378244093595
0.6075107605433160973262829 0.004935436740102980279765177 0.2124461972834191247905267
0.6150215210866322168570264 -0.01337637550659801811969718 0.2199569578267353275879969
0.6075107605433160973262829 -0.03168818775329901304971258 0.2124461972834191803016779
0.6945752948331653797708896 0.0174517689989928670435404 0.2228764741658273984548089
0.6891505896663308039507001 -0.01666666666666666990481716 0.2283011793326619465194227
0.6945752948331653797708896 -0.01588156433434046235775305 0.2228764741658273984548089
0.6796952107129365927562503 -0.002244091240121801923701472 0.2319393019530585631216013
0.6756645369263767353373851 0.005817256332997617143676372 0.2301527194066206316591661
0.6837258844994963391528131 -0.0391505896663309482796933 0.2228764741658273984548089
0.6684532492131044500993653 -0.02472801423978607943121588 0.2229414316933482353988438
0.6670592178328297316980411 -0.0391505896663309482796933 0.2193033090729515910410896
0.6742705055461020169360609 0.02472801423978607943121588 0.2265145967862240150569875
0.6630285440462698742791758 0.03557742457345512698818624 0.21751672652651368733423
0.6837258844994963391528131 0.0391505896663309482796933 0.2228764741658273984548089
0.6572112877132723074424803 0.006732273720365391025954871 0.2139435614336378244093595
0.6644225754265447037028025 -0.01217848418642307126158464 0.2211548491469102484252574
0.6572112877132723074424803 -0.03108924209321152834495372 0.2139435614336378521649351
0.731414821053511077231235 -0.01316047377965441807223801 0.2445752948331654519353862
0.7238444682770072136079875 0.009323449220009867241532042 0.2391505896663309038707723
0.731414821053511077231235 0.03180737221967415429002557 0.2445752948331654519353862
0.7184197631101727488101005 -0.03915058966633095521858721 0.2337258844994964113173097
0.7184197631101727488101005 0.03915058966633095521858721 0.2337258844994964113173097
0.7054247051668343093666635 0.0174517689989928670435404 0.2228764741658273706992333
0.710849410333668885186853 -0.005032154000671423474400079 0.2283011793326618632526959
0.7054247051668343093666635 -0.02751607700033571052289361 0.2228764741658273706992333
0.4430006696750621308922291 0.007840136947033199410483917 0.2648394672719710518649094
0.4360013393501241951710767 -0.01666666666666666296592325 0.2719207381485787000663379
0.4430006696750621308922291 -0.02549319638630013346025649 0.2648394672719710518649094
0.4216278889744989322174717 -0.01208023408458389937047972 0.2860013393501242284777675
0.4142537689238115494738679 -0.03141490676804147008649437 0.2930006696750621086877686
0.4142537689238115494738679 0.007254438598873665274002764 0.2930006696750621086877686
0.429010563629787955441941 -0.03600133935012422847776747 0.2649299624282424603372021
0.414637113254162692488336 -0.03600133935012422847776747 0.2790105636297879887486317
0.414637113254162692488336 0.03600133935012423541666138 0.2790105636297879887486317
0.429010563629787955441941 0.03600133935012423541666138 0.2649299624282424603372021
0.489359425079584853257586 0.0005516361266578609454797055 0.2611922110470730196141176
0.4825934396347857924247648 -0.01408360701625590780117214 0.2685098326185298978074911
0.4743965672720374948667654 -0.002310137709240826960066517 0.2767067049812782508766418
0.4729656803540880916081335 0.0005516361266578713538205614 0.2775859557725697812635701
0.4746109816171795725558979 -0.03130190980958044016935204 0.2605273746009236779386242
0.4803610968342288956023367 -0.0474169403495892441413595 0.2519182232042613822642352
0.4657874158753751991923764 -0.01952844050256535499143773 0.2706836190497371452678976
0.4592358447757183270709902 -0.0338849694599911849257623 0.2618219102408394505232536
0.4664141092544312194867473 0.01952844050256537233867249 0.2687242469636720310077749
0.4578049578577689793235095 0.03564347104257417631067995 0.2627011610321309253990307
0.4883435548518351709823548 0.03130190980958044710824595 0.2599006812218676021331021
0.473595111389429945791818 0.03388496945999120574244401 0.2592358447757182604576087
0.4951095402966341763040248 -0.01666666666666666990481716 0.2525830596504107239397285
0.4940936700688845495399448 0.009468806910345824515151669 0.2512915298252053619698643
0.4940936700688845495399448 0.0428021402436791625900625 0.2512915298252053619698643
0.4571782644787129035179873 0.007482268639483140304502484 0.2646605331181960396591535
0.4643565289574258514448957 -0.01149453573642436089718988 0.271562869841028675654826
0.4571782644787129035179873 -0.03047134011233186556832919 0.2646605331181960396591535
0.7433814319282037175184996 -0.01465950262751954287498979 0.2576221500913697393109203
0.7466907159641019697815523 0.0120552626340175890462536 0.2553164480750451659218925
0.7466907159641019697815523 -0.04137426788905666785733928 0.2553164480750451659218925
0.7430191072407735797256123 -0.04338143192820379662189012 0.2543128660554716535813213
0.7430191072407735797256123 0.04338143192820380356078402 0.2543128660554716535813213
0.7397098232048754384848621 -0.01666666666666666296592325 0.2566185680717961714591979
0.7393474985174451896696723 0.002704881148213673230928933 0.253309284035898085729599
0.7393474985174451896696723 0.03603821448154700957111629 0.253309284035898085729599
0.79891962622002365979057 0.04378589774333608436451826 0.294866271523312628577429
0.7978392524400470531276142 -0.01666666666666666296592325 0.2958125750916915652766193
0.79891962622002365979057 0.01045256441000275843267175 0.294866271523312628577429
0.7886775273938534391859889 -0.001656783425720682878523604 0.2903343108195740041033162
0.7805961761276363208850171 0.01450591910671363005125301 0.2839097429790775062308228
0.7955161692353647229225544 -0.04783925244004695598309951 0.2934894918870092905827107
0.7730912345071632163495678 -0.03282936919910096895680596 0.2757515999524574046297687
0.7788495025686981154677824 -0.04783925244004695598309951 0.2798530845882716278083535
0.7863544441891711089809291 0.03282936919910097589569986 0.2880112276148917294094076
0.7707681513024808861445081 0.03499011675905401574926401 0.2734285167477751299358601
0.7955161692353647229225544 0.04783925244004695598309951 0.2934894918870092350715595
0.7575049416204731045354492 0.003663947464867809040989233 0.26116888908534074964507
0.7650098832409459870262936 -0.01465950262751954287498979 0.2693270321119609067572753
0.7575049416204731045354492 -0.03298295271990688698471317 0.26116888908534074964507
0.8051403857660508478488737 -0.04386641132509614543488752 0.2990067970911469696915219
0.8040599972463049471826935 -0.01251948380946896893783915 0.2980135941822938949741228
0.8051403857660508478488737 0.01882744370615821449810312 0.2990067970911469696915219
0.8030667943374520945098993 -0.04801359418229384640186552 0.296980119742791481840527
0.8030667943374518724652944 0.04801359418229384640186552 0.296980119742791481840527
0.8009932029088531191263201 0.04396023948558298172217818 0.2949534423944360495006833
0.8019864058177061938437191 0.01261331196995579481678895 0.2959869168339384071231279
0.8009932029088531191263201 -0.01873361554567138861915332 0.2949534423944360495006833
0.3924718979020672127155933 0.004362813109911479331204376 0.3118909152078442881261822
0.3849437958041342922044237 -0.01666666666666666296592325 0.3196533044570228354608332
0.3924718979020672127155933 -0.02897052022342185700898298 0.3118909152078442881261822
0.3695336440491810980901732 -0.01415363684323970618061939 0.3349437958041341922843515
0.3616515943921608244870924 -0.03243076598070733507217511 0.3424718979020671127955211
0.3616515943921608244870924 0.004123492294227923578298078 0.3424718979020671127955211
0.3774268266547256556187051 -0.03494379580413428665330855 0.3121363353076141988751147
0.3620166748997725170156059 -0.03494379580413428665330855 0.3274268266547256112097841
0.3620166748997724615044547 0.03494379580413430053109636 0.3274268266547256667209354
0.3774268266547257111298563 0.03494379580413430053109636 0.3121363353076142543862659
0.4261142817712120778317342 0.000151856419642125428648427 0.3240375746484299157579301
0.4256710332003375563125758 -0.001038353561391072623493192 0.324632679638946486377904
0.4248508051632413629050689 -0.0006021025128014755208039066 0.3254529076760427352965621
0.4244738256970195244832667 0.0001518564196421259165394047 0.3256780307226224135952464
0.4176218309415608009871335 -0.01785687664769987359481007 0.3165834773801696755413104
0.4115057856894477894549311 -0.03437168689472440419319099 0.3081742158370153195079411
0.4164415436200870068716995 -0.01742062559911027735948252 0.3184198214524436298944465
0.4087693208275320344569081 -0.03348518975297547911607055 0.3101454961470871407591687
0.4168016029044645520684753 0.01742062559911026348169472 0.3174037054172659244599686
0.4083923413613101960351059 0.03393543584613480101896954 0.310370619193666819057853
0.4195549879482246002915247 0.01785687664769985971702226 0.3162234180957921303445346
0.411062537118573323446924 0.03348518975297547217717664 0.3087693208275319456390662
0.4199982365190990662995318 -0.01666666666666667684371106 0.3156283131052755597245607
0.4134389426961116442704736 -0.02770854718985951703480453 0.3078141565526377743111652
0.4134389426961116442704736 0.00562478614347382450955326 0.3078141565526377743111652
0.4080322820769326508383301 0.003354453151911976349630606 0.3113867352288445800034822
0.4160645641538651684498973 -0.01391431602755616170341568 0.318644944499023363704282
0.4080322820769325398160277 -0.03118308520702428934812112 0.3113867352288445244923309
0.8471984157543195337325415 0.03436543824563423332740797 0.3371670224913146385326002
0.8443968315086390896695434 -0.01666666666666666296592325 0.3393811348771366143139971
0.8471984157543196447548439 0.001032104912300908479763639 0.3371670224913146385326002
0.8355390968931886153114874 -0.001048802564234274040805284 0.3365878994574227900393737
0.8294829465234188070610344 0.0110634981753057210634994 0.3315805516518871010056557
0.8171322069461132153733729 -0.04200976531558291149348605 0.3150586155175142399897936
0.8326053405162517906390462 -0.04439683150863904526062242 0.3255160524561504509222232
0.8228675475687305951311146 -0.02639190121315052386941069 0.3239163501329647143478496
0.8228675475687305951311146 0.02639190121315052733885764 0.3239163501329647143478496
0.8171322069461132153733729 0.04200976531558291149348605 0.3150586155175142399897936
0.8326053405162517906390462 0.04439683150863904526062242 0.3255160524561504509222232
0.8053407159537258053205733 -0.04346575094974616804144318 0.3011935330965280765980197
0.8044606576216550841706976 -0.01251948380946897067256263 0.3023870661930561642982696
0.8053407159537258053205733 0.01842678333080823016576488 0.3011935330965280765980197
0.8101959982442724639284393 0.001048802564234274040805284 0.3112448008085065831451743
0.8168113971989605648360566 -0.01427960047361053093351035 0.3189090023274290253141316
0.8623655205747375873670535 -0.03520970579053417370829493 0.3475752263652717166664274
0.8598199207394610077415109 -0.006725919726657147990067642 0.3451504527305436220707691
0.8623655205747375873670535 0.02175786633721988466705355 0.3475752263652718276887299
0.8573951471047328576347013 -0.04515045273054368868415054 0.3425595297337693523331836
0.8573951471047328576347013 0.04515045273054369562304444 0.3425595297337693523331836
0.8524247736347281279023491 0.03511905946753887675093608 0.3375438331022669324887886
0.8548495472694562780091587 0.00663527340366184929798532 0.340134756099041202226374
0.8524247736347281279023491 -0.02184851266021517468551849 0.3375438331022669324887886
0.3428117247237293385708767 0.005887448316317820881660161 0.3630757235925884396365859
0.3356234494474586438350627 -0.01666666666666666296592325 0.3707554488818881610612266
0.3428117247237293385708767 -0.02744588501701551025435677 0.3630757235925884396365859
0.3211431017857232506074183 -0.01229402865680415471438813 0.3856234494474586327328325
0.3138510294002585521155879 -0.03125081143759612239962919 0.3928117247237293274686465
0.3138510294002585521155879 0.006662754123987813838214667 0.3928117247237293274686465
0.3284447525258500366618364 -0.03562344944745862718171736 0.363576751960279498376849
0.3139644048641145879230407 -0.03562344944745862718171736 0.3784447525258499700484549
0.3139644048641145879230407 0.03562344944745864105950517 0.3784447525258499145373037
0.3284447525258500366618364 0.03562344944745864105950517 0.363576751960279498376849
0.3750702292281864469458696 1.50861361430114635287774e-05 0.3749448569079567583628432
0.3750464292162005719433182 -6.268616011483990049443782e-05 0.3749837430560856721406537
0.3749686677981839411089027 -9.283667591827895180546515e-05 0.3750615044741021919527668
0.374914706392153296299341 1.508613614301289840259005e-05 0.3751003797439897979870693
0.3670254105267243827093182 -0.0167444389629245252160139 0.3669627243666094829066537
0.3599410490370330006903998 -0.03339601949344816328446583 0.3586218479652045765249113
0.3666277913967791457494627 -0.01677458947872796299338738 0.3685192941737935878876442
0.3586607341133336568361756 -0.03334841946947635082931782 0.3604594002144297926193417
0.3669476491087078628972051 0.01677458947872795258504652 0.3670404857846261137410693
0.3586067727073030120266139 0.03342617000925160453128626 0.3604982754843174541647954
0.3679620677265091899243998 0.0167444389629245113382261 0.3666428666546807102477601
0.3599172490250471256878484 0.03334841946947635776821173 0.3586607341133336568361756
0.3679858677384950649269513 -0.01666666666666667337426411 0.3666039805065517964699495
0.3608777062368178079054815 -0.03075761734979155087588154 0.3583019902532758593771689
0.3608777062368178079054815 0.002575715983541785030624949 0.3583019902532759148883201
0.3582869149953742948788715 0.003690168878110783486079516 0.3619770838734849283113704
0.3665738299907485009399011 -0.01306933446447415894664523 0.3685581694436811384107955
0.3582869149953742948788715 -0.02982883780705909010366739 0.3619770838734849283113704
0.8894282607141008600848409 -0.002992483394021978881927026 0.3924207441081229985613277
0.8810830141948660099160406 0.01518233815555730843727122 0.3848414882162459749181949
0.8894282607141008600848409 0.03335715970513659228702252 0.3924207441081229985613277
0.8660739161032672273066169 -0.04461539547823446111296519 0.3611035426332623865519622
0.8686827985251395212173975 -0.02945688369448042076559346 0.3701909534080520813859039
0.8819149986753687109342081 -0.03484148821624595548929193 0.3841653178138360602567047
0.8686827985251395212173975 0.02945688369448042076559346 0.3701909534080521368970551
0.8819149986753684888896032 0.03484148821624595548929193 0.3841653178138360602567047
0.8660739161032672273066169 0.0446153954782344680518591 0.3611035426332623865519622
0.8626330492008922323776687 -0.03467464853822493919821568 0.3526923022608826618906619
0.8603549779917702977627414 -0.006725919726657147990067642 0.3553846045217654570080867
0.8626330492008922323776687 0.0212228090849106501569743 0.3526923022608827729129644
0.8629638604136424806512196 0.00150815488291261567965762 0.3644720152965551518420284
0.86785081404463682019923 -0.01128206214490112997694826 0.3708671238104620515585452
0.2977765792565638669486816 0.03626969150775733591318684 0.4384931122511934731278416
0.2955531585131277449995935 -0.0166666666666666594964763 0.4409114250104425036802525
0.2977765792565638669486816 0.002936358174424005210850774 0.4384931122511934731278416
0.2910981925164931038985117 0.007756734673397336528311019 0.4455531585131277116929027
0.2888666472632944737242155 -0.02112975717306376025050874 0.4477765792565638336419909
0.2888666472632944737242155 0.03664322651985843504185425 0.4477765792565638336419909
0.2933324728885506882392065 -0.04555315851312775887738127 0.4386907393858654469198655
0.2888775068919159361158222 -0.04555315851312775887738127 0.4433324728885505994213645
0.2888775068919159361158222 0.04555315851312777275516908 0.4433324728885505994213645
0.2933324728885506882392065 0.04555315851312775887738127 0.438690739385865335897563
0.3270903172342018438989442 0.0004991278606102879291522845 0.423408810626408449451219
0.3264195045125586336354218 -0.001840753303896637115694146 0.4245787512086618420426021
0.3198279407988966482889737 -0.01134237412342732100045684 0.4311703149223238829002014
0.3139071898068778176948967 0.0004991278606102886880938052 0.4365919380537324201441152
0.3184396817682165758967017 -0.01900654783117358692656751 0.416598928464319784303882
0.3120431035095093674769373 -0.03517408663722997042011542 0.40801603120068136165699
0.3112450435352581146197792 -0.02850816865070426864292585 0.4346123508226669152065824
0.3091859717829348874751361 -0.03383246119394361234311575 0.4212109049469163757350998
0.3118481180545545905502536 0.02850816865070428252071366 0.4231904921779818806726325
0.3032652207909161123922104 0.04467570745676066601426157 0.4266325280783248574678623
0.3200229262538514252156574 0.01900654783117359386546141 0.4159958539450234749068613
0.3113722907878662127245661 0.03383246119394361928200965 0.4091859717829349207818268
0.3206937389754946354791798 -0.01666666666666666296592325 0.4148259133627699712931758
0.313626347995144216795893 -0.02711994201957417666148942 0.4074129566813849967488181
0.313626347995144216795893 0.006213391313759151005080561 0.4074129566813849967488181
0.3026621462716196919728873 0.03539224045139022917227933 0.4380543867230098920018122
0.3053242925432393395368535 0.007383199661296241736452295 0.440033973954075396939345
0.3026621462716196919728873 -0.0206258411287977491688217 0.4380543867230098920018122
0.895883822525838979800028 -0.01179431238820075056317194 0.4065523546133940069324808
0.897941911262919445491093 0.01742284347097155378092381 0.4069304430155464835650037
0.897941911262919445491093 -0.04101146824737304796837378 0.4069304430155464835650037
0.897199747007364933892859 -0.0458838225258389742489129 0.4044942658763135412414158
0.897199747007364711848254 0.0458838225258389742489129 0.4044942658763135412414158
0.895141658270284246157189 -0.01666666666666667684371106 0.404116177474161064608893
0.89645758275181020025002 0.01106616068139626776756224 0.402058088737080598917828
0.89645758275181020025002 0.04439949401472960410774959 0.402058088737080598917828
0.9297082079239855634256173 -0.01440554832156086192962441 0.4441137562455466092359302
0.9236834695936728678589134 0.007155297502865700168261931 0.4382275124910932628807814
0.9297082079239855634256173 0.02871614332729226920504217 0.4441137562455466092359302
0.9177972258392195215037646 -0.03822751249109323373742697 0.429883266718112944104746
0.9177972258392195215037646 0.03822751249109323373742697 0.429883266718112944104746
0.9058862437544532575373069 0.009766533436225821943055259 0.4156527771906792789735618
0.9117724875089066038924557 -0.01179431238820074535900151 0.4239970229636595977495972
0.9058862437544533685596093 -0.03335515821262731439578175 0.4156527771906792789735618
0.2886115452335319964127791 0.002863834756630230255619596 0.4642522895230980495284712
0.2839536486842386686646478 -0.01217962785521695123769348 0.4717740208290216452624577
0.2723731914551067445628973 -0.01098128660304687094495524 0.4861971680899634939976295
0.2654506307752682037204295 -0.03051178802634376199809374 0.4930985840449817469988147
0.2654506307752682037204295 0.00854921482025002184290674 0.4930985840449817469988147
0.2770755587289018273544627 -0.03171012927851384055610851 0.4648959308736849149745751
0.2795220086872854392545662 -0.04551296118855028410843389 0.4551306801620365050098371
0.2654951014997699587638635 -0.03619716808996355228433828 0.4793190781346267081985957
0.2654951014997699587638635 0.03619716808996356616212609 0.4793190781346267081985957
0.2864000986426221695424488 0.03171012927851385443389631 0.4620087701173732352977197
0.2748641121379920559952836 0.03619716808996356616212609 0.4626524114679600452326724
0.2910579951919155528017313 -0.0166666666666666594964763 0.4544870388114496950748844
0.288846548601005725931401 0.003269695861947624800081247 0.4522435194057248253329817
0.288846548601005725931401 0.03660302919528095333401296 0.4522435194057248253329817
0.9367722644940773557564739 -0.005821958037038617306269117 0.4925942225311160660439214
0.9294947984503645344034339 0.01269982035852692398014696 0.485188445062232187598994
0.9367722644940773557564739 0.03122159875409246179711609 0.4925942225311160660439214
0.9304696938828307395397132 -0.03746791556299731984491785 0.4685587117980645754933278
0.9259644892669484095293342 -0.02265636062522952479114657 0.4778196009958473600143236
0.9343816905610438094953452 -0.03518844506223220425233933 0.4882202254440126676371392
0.9259644892669484095293342 0.02265636062522953519948743 0.4778196009958473045031724
0.9343816905610438094953452 0.03518844506223221119123323 0.4882202254440126676371392
0.9304696938828307395397132 0.03746791556299733372270566 0.4685587117980645754933278
0.9300880063880336834358786 -0.01364595139346494803711529 0.4562660422185013109341867
0.9244430665217688858348311 0.007155297502865708841879311 0.4625320844370027217884456
0.9300880063880336834358786 0.02795654639919636919032087 0.4562660422185013109341867
0.9199378619058866668467545 0.001855111728898880272056737 0.4717929736347855063094414
0.9210775971562692454597254 -0.00413458222966398177000702 0.4747878206140668799761784
0.2786010072798769110491435 0.001774725679067127833213324 0.5231737183991900241863959
0.2781315478992387735246439 -0.002713644440343329806986095 0.5254179034588952745821189
0.2702636444997537079615313 -0.01302216235862680045187734 0.5351080590124002167584649
0.2628652004809067244117671 -0.03146355470436058149319436 0.5425540295062000195613905
0.2628652004809066689006158 0.00541922998710697885471621 0.5425540295062000195613905
0.2707759416149960740582969 -0.02115503678607711518511181 0.5180622971746526861380744
0.2643979354739390830175694 -0.03604697777367667221870562 0.5088416010017857704639255
0.2629080382155110084951843 -0.03510805901240043880306985 0.5277524527281576283144204
0.2629080382155110084951843 0.03510805901240045268085765 0.5277524527281576283144204
0.2717535417581817824839163 0.02115503678607713600179352 0.5161972072860284699302724
0.263928476093301001004221 0.03510805901240045268085765 0.5110857860614910208596484
0.2722230011388198644972647 -0.01666666666666665602702935 0.513953022226323108512247
0.2653755356171247914431888 -0.0249343088293701928281898 0.5069765111131615542561235
0.2653755356171247914431888 0.008399024503963141777274082 0.5069765111131615542561235
0.9378398536901128013099083 -0.004415540132835356346152622 0.5422553938229480730015553
0.9305368361106338692678719 0.01342858084639452984077046 0.5345107876458963236387945
0.9378398536901128013099083 0.03127270182562441602769354 0.5422553938229480730015553
0.9370626918016580209069843 -0.03473652735092713078612903 0.5223794482890612433934052
0.9301240544661129039383241 -0.0192473149968236841023117 0.5313015087786761014854164
0.9375399418981071875123234 -0.03451078764589654568339938 0.5403364391208063111093907
0.9301240544661129039383241 0.01924731499682369104120561 0.5313015087786761014854164
0.9375399418981071875123234 0.03451078764589655262229329 0.5403364391208063111093907
0.9370626918016580209069843 0.03473652735092713772502293 0.5223794482890612433934052
0.9369982233497299306534956 -0.005370040325733548176867505 0.5076317363245363978307978
0.9299467161616694621528723 0.01269982035852691877597653 0.5152634726490727956615956
0.9369982233497299306534956 0.03076968104278739180035274 0.5076317363245363978307978
0.923008078826124345184212 0.001177454312563219751552879 0.5241855331386876537536068
0.923120948678639696716175 -0.001403194017593801384835572 0.5254758573037661140148202
0.2778819538559760271567711 0.002349009522826036797105154 0.5744670556668499683539153
0.278202734070107537966976 -0.001707449094563005852556725 0.5764952849755444752588573
0.2714972139765630676500052 -0.01170359109252584392524277 0.5856823428561594990782169
0.264470913668887197545132 -0.03071926728201854542299465 0.5928411714280799049703319
0.2644709136688870865228296 0.007312085096966861909317803 0.5928411714280797939480294
0.2711946366531318153292318 -0.02072312528405570453138296 0.5694871875585687526211132
0.2635090507124053793575058 -0.03504078242789632896547758 0.5599793494638223290138512
0.2644891165595874005234123 -0.03568234285615935752478123 0.5786742454391836654181702
0.264489116559587345012261 0.03568234285615937140256904 0.5786742454391835543958678
0.27051714812938110199525 0.02072312528405570800082991 0.5669874468807980516515954
0.2638298309265368901677107 0.03568234285615937140256904 0.5620075787725168359187933
0.2701963679152495911850451 -0.01666666666666666296592325 0.5649592175721035447466534
0.262831562188654666023524 -0.02798137993073046558833994 0.5574796087860516280443335
0.262831562188654666023524 0.005351953402602864680315253 0.5574796087860516280443335
0.9358736593421235205880748 -0.006718826909482712023136131 0.5925924862516060986905586
0.929048100293652590053739 0.01179947892706280712649125 0.5851849725032122195855777
0.9358736593421235205880748 0.03031778476360832974556558 0.5925924862516060986905586
0.9376039209576485511377086 -0.03466955060645444952616145 0.5725562972011177809150695
0.9299638109495118598601948 -0.01985452310966663580504843 0.5818154501193906202871631
0.936531659049603781852511 -0.03518497250321217517665673 0.5908168920892845621395395
0.9299638109495118598601948 0.01985452310966665315228319 0.5818154501193906202871631
0.936531659049603781852511 0.03518497250321218905444454 0.5908168920892845621395395
0.9376039209576485511377086 0.03466955060645446340394926 0.5725562972011177809150695
0.937760472209833939594148 -0.004574303093393260188914695 0.5576652246967725989890141