# geometry NO_DATA 592
#  x  y  z
3.649954279192332506909224 0.04968034815387948471832047 1.799726068961547298385995
3.649908558384664658547081 -0.01666666666666666990481716 1.79979445326927178783194
3.649954279192332506909224 0.01634701482054615878647397 1.799726068961546854296785
3.649776903993859455965776 0.01640335788505721537067217 1.799908558384664347684634
3.649690970410722545835824 -0.0168385338329405664925531 1.799954279192332196046777
3.649690970410722545835824 0.04964524960305500417279134 1.799954279192331974002173
3.649865765391416161378402 -0.04990855838466445870693633 1.799751660276023290663261
3.649734111000610958797097 -0.04990855838466445870693633 1.799865765391415850515955
3.649734111000610958797097 0.04990855838466443789025462 1.799865765391415850515955
3.649865765391416161378402 0.04990855838466444482914852 1.799751660276023734752471
3.693435575366932788199392 0.01903481837704208007311379 1.775599243010109740126268
3.686871150733864954673891 -0.01666666666666666990481716 1.777952984555453141979342
3.693435575366932788199392 -0.01429851495629125279762661 1.775599243010109740126268
3.670516553273251325606452 -0.01604252825455948841537612 1.78655908152781073283677
3.660726380445705974153725 0.003537817400531162448373834 1.792811436954824699796518
3.686823962177411928564652 -0.03687115073386455083026547 1.777905795998999893825498
3.660414311239652551677182 -0.03624701232175736587137749 1.793009401045486228554182
3.67015729551074487702067 -0.03687115073386455083026547 1.786709857062018347306775
3.670469364716798299497214 0.03624701232175731036022626 1.786511892971357484682926
3.660367122683199525567943 0.04937586158789276230551835 1.792962212489032758355734
3.686823962177411928564652 0.03687115073386454389137157 1.777905795998999893825498
3.650312069206053777747911 0.04914765135710780219469029 1.799459720563161280182385
3.650624138412107200224455 0.01643845643588165428283787 1.799261756472500195513931
3.650312069206053777747911 -0.01627073848534444158731027 1.79945972056316105813778
3.73974170654964410687171 6.822212548443043838805079e-06 1.768595037889963528243698
3.744870853274822053435855 0.02308186209552564455149692 1.771802635604392772705751
3.744870853274822053435855 -0.02306821767042875961917225 1.771802635604393216794961
3.724788378845317993182107 -0.02962195538173384781743813 1.768380005629007101219941
3.736395169928029336148256 -0.03974170654964387372487522 1.771656874484659471846726
3.71325085890382933229148 -0.03988024883208997339867352 1.770999359392084304687387
3.71325085890382933229148 0.03988024883208996645977962 1.770999359392084304687387
3.724788378845317993182107 0.02962195538173383740909728 1.768380005629007101219941
3.736395169928029336148256 0.03974170654964385984708741 1.771656874484659471846726
3.728134915466932319816351 -0.006546915498756642262656591 1.765318169034310935572307
3.721657271109398923414346 0.006408373216310534782602648 1.76524889789308803145218
3.710119751167910706612929 -0.001169665690155799551291915 1.767868251656165456964231
3.705059875583955886213516 0.0220439164752675061109688 1.770556876560466008641015
3.705059875583955886213516 -0.02438324785557910434619089 1.770556876560466008641015
3.782681964242991856650633 -0.01186478620590939760115479 1.794546750448901217822595
3.774520856448143835137898 0.01056204802522697251687678 1.789093500897802835325479
3.782681964242991856650633 0.03298888225636335130852572 1.794546750448901217822595
3.769067606897044786506967 -0.03909350089780304349229567 1.786216828221842245483231
3.769067606897044786506967 0.03909350089780302961450786 1.786216828221842023438626
3.755453249551098160452511 0.02243365644368481084947042 1.777886905994783051099262
3.760906499102196764994233 6.822212548438418191880123e-06 1.780763578670743862986114
3.755453249551098160452511 -0.02242001201858792938659271 1.777886905994783051099262
3.598514698786404952812745 0.03948569162739363341829701 1.840970992840988529337665
3.597029397572810260896858 -0.01666666666666666990481716 1.843257544600102493248528
3.598514698786404952812745 0.006152358294060300547556608 1.840970992840988529337665
3.59249900308235092794007 0.007605877685747734241739071 1.847029397572811149075278
3.589453909805485842809958 -0.0227568532203963336257857 1.84851469878640561894656
3.589453909805485842809958 0.03796860859189180037454037 1.84851469878640561894656
3.595745199606369624234503 -0.04702939757281072996608629 1.841973346633661634541568
3.591214805115909847188505 -0.04702939757281072996608629 1.845745199606370512412923
3.591214805115910735366924 0.04702939757281072996608629 1.845745199606370512412923
3.595745199606369624234503 0.04702939757281072996608629 1.841973346633661634541568
3.630653420553010768401236 -0.03717477048679759810134726 1.814118408277148875029638
3.614118408277148919438559 -0.03717477048679759810134726 1.82701322197110727074687
3.614118408277148919438559 0.03717477048679761891802897 1.82701322197110727074687
3.630653420553010768401236 0.03717477048679761891802897 1.814118408277148875029638
3.639482639308324607441136 -0.004104745935073710223772725 1.806412614756601087151466
3.6293602417890635791764 0.01640335788505724312624778 1.812825229513202351938617
3.639482639308324607441136 0.03691146170518817132277789 1.806412614756601087151466
3.612825229513202174302933 0.009122960721249590704262644 1.825720043207160303566639
3.606412614756600465426573 0.02963106454138052583968665 1.83220224214451743449672
3.606412614756600465426573 -0.01138514309888136524784308 1.83220224214451743449672
3.798154645556572894804503 -0.01207292014961689613494755 1.804142227701950762508432
3.79907732277828635858441 0.01941505874029022041260539 1.805516423738762643580458
3.79907732277828635858441 -0.04356089903952401615194745 1.805516423738762643580458
3.796025013457566821273304 -0.04815464555657378992181705 1.803219550480237742817735
3.796025013457566377184094 0.04815464555657376910513534 1.803219550480237742817735
3.795102336235853357493397 -0.01666666666666666990481716 1.801845354443426083790314
3.792972704136847283962197 0.008716693581800759663136269 1.800922677221712842055013
3.792972704136847283962197 0.0420500269151340838602593 1.800922677221712842055013
3.838958750494688487719941 -0.00395091719244696371743375 1.842909667687135710778534
3.830114873716640833123392 0.01520175151515752373643231 1.835819335374271332739227
3.838958750494688487719941 0.03435442022276202767017139 1.842909667687135488733929
3.82302454140377623303948 -0.03581933537427117730800319 1.82853987427899378204188
3.82302454140377623303948 0.03581933537427114955242757 1.82853987427899378204188
3.807090332312863978359019 0.007079748557987597390450674 1.814170080870852075349831
3.814180664625728134353722 -0.01207292014961691001273536 1.821449541966129404002572
3.807090332312863978359019 -0.03122558885722140353813359 1.814170080870852075349831
3.547012584342612129262307 0.02987861741241547297587289 1.882866033069802380595092
3.544025168685225324338717 -0.01666666666666667337426411 1.886951893048820716458636
3.547012584342612129262307 -0.003454715920917862063271864 1.882866033069802380595092
3.535135240221972896534908 -0.001113190259838262030633871 1.894025168685225857245769
3.529232727416107273654688 -0.02847169227839752708719701 1.897012584342612884213963
3.529232727416107273654688 0.02624531175872100996482317 1.897012584342612884213963
3.542113748927784300235544 -0.04402516868522593496138029 1.885040473291379692355463
3.533223820464531872431735 -0.04402516868522594190027419 1.892113748927785055187201
3.533223820464531428342525 0.04402516868522593496138029 1.892113748927784389053386
3.542113748927784300235544 0.04402516868522593496138029 1.885040473291379470310858
3.572632220645056921881633 -0.04151141871887115142314428 1.860495948468850357926385
3.560495948468849647383649 -0.04151141871887115142314428 1.870089339499111602549419
3.560495948468849647383649 0.04151141871887113754535648 1.870089339499111602549419
3.572632220645056921881633 0.04151141871887113754535648 1.860495948468850357926385
3.578516834992978346008385 -0.0172388743664567481439498 1.85424429064056472959976
3.570624853457335490247715 0.007605877685747717761866049 1.858488581281128926292467
3.578516834992978346008385 0.03245062973795220101491665 1.85424429064056472959976
3.558488581281127771660522 0.002520115393856194908883683 1.868081972311390170915502
3.554244290640563352923209 0.02736486744606067902929603 1.873431072701087218845828
3.554244290640563352923209 -0.02232463665834827359901738 1.873431072701087218845828
3.849444288999776198068048 -0.01531264711837951320028139 1.851232720774367068727884
3.84972214449988792139834 0.0174649752147302758653602 1.851631875048398878647049
3.84972214449988792139834 -0.04809026945148928838813518 1.851631875048398878647049
3.848989686924133568624029 -0.04944428899977645897045875 1.850954865274255567442196
3.848989686924133568624029 0.04944428899977643815377704 1.850954865274255123352987
3.848711831424021845293737 -0.01666666666666667684371106 1.850555711000223535478426
3.848257229348379215849718 0.01464604051493399033967435 1.850277855500111812148134
3.848257229348379215849718 0.04797937384826731627152085 1.850277855500111368058924
3.884102386612946489208298 0.01240051444126576314641586 1.880431203941019591141526
3.892051193306473422239833 0.02983623438754586659760193 1.887015987801459182549024
3.892051193306473422239833 -0.005035205505014364590898879 1.887015987801459182549024
3.866497205636783895954522 -0.02619191023277996424600822 1.865728152357170488429006
3.87920863411336691584097 -0.0341023866129467681518328 1.876306504721053425299715
3.857779345663644221531285 -0.04208952361983318846139213 1.858456355437787976825348
3.857779345663644221531285 0.04208952361983309131687747 1.858456355437787310691533
3.866497205636783895954522 0.02619191023277988444872832 1.865728152357170488429006
3.87920863411336691584097 0.03410238661294678896851451 1.87630650472105320325511
3.87139095813636302523264 -0.00875619028649983824341696 1.869852851577136876315421
3.866628336353306494288518 0.0007690532796133589532594499 1.865859283073693308807606
3.857910476380166375776071 -0.01531264711837959820173172 1.858587486154310575159343
3.853955238190083676386166 0.01011020983478692902846063 1.855309257738370520840476
3.853955238190082788207746 -0.04073550407154602481796246 1.855309257738370520840476
3.905929172393218351544419 -0.04318503689352493069009142 1.899114209286743015780985
3.904293272266494696509653 -0.01162328498670572342332807 1.898228418573485898335207
3.905929172393218351544419 0.01993846692011348731288223 1.899114209286743015780985
3.90340748155323780110848 -0.04822841857348587890630398 1.896981133174042710720641
3.90340748155323780110848 0.04822841857348587890630398 1.896981133174042710720641
3.900885790713257250672541 0.0439622663480849565353914 1.894848057061342183615693
3.901771581426514146073714 0.01240051444126574059501067 1.896095342460785371230259
3.900885790713257250672541 -0.01916123746555347187592311 1.894848057061342183615693
3.495097829673295741770289 0.01948299946405005617089401 1.924385169790753913332537
3.490195659346591927629788 -0.01666666666666668378260496 1.929839329405321102228754
3.495097829673295741770289 -0.01385033386928328537346378 1.924385169790753913332537
3.477215205100608219623837 -0.009294241825300492837458322 1.940195659346592105265472
3.469136921181328325758386 -0.03282323450522604130208393 1.945097829673296141450578
3.469136921181328325758386 0.01423475085462506950495509 1.945097829673296141450578
3.48851221335605687912107 -0.04019565934659223571667752 1.928155883414786275764641
3.475531759110073171115118 -0.04019565934659222877778362 1.938512213356057500845964
3.475531759110073615204328 0.04019565934659221489999581 1.938512213356057056756754
3.48851221335605732321028 0.04019565934659222183888971 1.928155883414786053720036
3.514826810645934607180152 -0.04473814545897790428963248 1.907050072442520782800557
3.507050072442520871618399 -0.04473814545897790428963248 1.913360409167916609263216
3.507050072442520871618399 0.04473814545897791816742028 1.913360409167916387218611
3.514826810645934607180152 0.04473814545897791816742028 1.907050072442520782800557
3.518184403677338867311164 -0.02918466905214949294600224 1.902630927270510863280606
3.513038592744435639758649 -0.001113190259838235359260428 1.905261854541022259468264
3.518184403677338867311164 0.02695828853247299664031011 1.902630927270510863280606
3.505261854541021904196896 -0.004045993215875476681220313 1.911572191266417641841713
3.502630927270510952098448 0.02402548557643575943831848 1.915251600721302072116714
3.502630927270510952098448 -0.03211747200818673708688777 1.915251600721302072116714
3.939183835301435898657019 0.005178756734282895408949532 1.92173887639903906432437
3.944591917650718038146351 0.02769592536905205598651847 1.927253505750231798998584
3.944591917650718038146351 -0.01733841190048625302555507 1.927253505750231798998584
3.930446941824031981127519 -0.03918383530143582788030088 1.916330794049757146879642
3.930446941824031981127519 0.03918383530143582094140697 1.916330794049757146879642
3.925038859474749841638186 -0.01666666666666668031315801 1.910816164698563968116218
3.916301965997345924108686 -0.02243944968526990352275519 1.905408082349282050671491
3.916301965997345924108686 0.01089388364806342934798522 1.905408082349282494760701
3.966541590557030705355146 -0.03097818859212442960116007 1.947519779149155194630794
3.96199112655478291600275 -0.002605296960480674162141668 1.945039558298310433670508
3.966541590557030705355146 0.02576759467116309515466455 1.947519779149155194630794
3.95951090570393748890865 -0.04503955829831043922162337 1.941775824182963461339568
3.95951090570393748890865 0.04503955829831041840494166 1.941775824182963461339568
3.952480220850845160640574 0.03355164836592665345005315 1.936031869216771506003738
3.954960441701690143645465 0.005178756734282891072140842 1.939295603332118478334678
3.952480220850845160640574 -0.02319413489736086089743061 1.936031869216771506003738
3.442888728525530073198979 0.008787834998781362746966828 1.9658991064732511677704
3.435777457051059968762274 -0.01666666666666664908813544 1.97228264602492076029705
3.442888728525530073198979 -0.02454549833455197185849705 1.965899106473251389815005
3.420088157324110866852607 -0.01471193278723152177145383 1.985777457051060013171195
3.411510129071631869379644 -0.03382272317162512975663446 1.992888728525529895563295
3.411510129071631869379644 0.004398857597162068866492035 1.992888728525529895563295
3.435152421876699335712146 -0.03577745705106025186914565 1.971657610850560127246922
3.419463122149750233802479 -0.03577745705106025186914565 1.985152421876699380121067
3.419463122149750233802479 0.03577745705106027268582736 1.985152421876699380121067
3.435152421876699335712146 0.03577745705106026574693345 1.971657610850560127246922
3.457288904904777471216448 -0.04744029399707484773163202 1.953602692484095015856838
3.453602692484094127678418 -0.04744029399707484773163202 1.956774548124621926348254
3.453602692484094127678418 0.04744029399707484773163202 1.956774548124621704303649
3.457288904904777471216448 0.04744029399707484773163202 1.953602692484094571767628
3.458652277842828581810863 -0.04006786915570866025593233 1.951279853001462782913222
3.456245918423608287639581 -0.009294241825300482429117466 1.952559706002925388190761
3.458652277842828581810863 0.0214793855051076953976974 1.951279853001462782913222
3.452559706002924944101551 -0.01032295538561224176876685 1.955731561643452742771387
3.451279853001462782913222 0.02045067194479593605804801 1.957623564282517047985266
3.451279853001462782913222 -0.04109658271602042306502867 1.957623564282517492074476
3.99341093505736921542848 -0.0008156168564359203565494738 1.964514589847746295347974
3.99670546752868460771424 0.02592865153426635732580863 1.969145582281546236202985
3.99670546752868460771424 -0.02755988524713821191669538 1.969145582281546236202985
3.987069485715110772616754 -0.04341093505736894064828135 1.961220057376430903062214
3.987069485715110772616754 0.04341093505736896146496306 1.961220057376430903062214
3.983774953243795380330994 -0.01666666666666664908813544 1.956589064942631184251809
3.977433503901537381608478 -0.009194361903111698125501405 1.953294532471315791966049
3.977433503901537381608478 0.024138971430221634745239 1.953294532471315791966049
4.02366639177587170905781 -0.02256638454256187226176777 1.996232776318433765894156
4.017484031410284650576159 0.003232501427639409598280285 1.992465552636867975877522
4.02366639177587170905781 0.02903138739784068625415792 1.996232776318433765894156
4.01371680772871819442571 -0.04246555263686794395860957 1.987491634556882491580154
4.01371680772871908260413 0.04246555263686794395860957 1.987491634556882491580154
4.003767223681565567972029 0.02498326911376534675834904 1.978750492795331439310758
4.007534447363132024122478 -0.0008156168564359353185394541 1.983724410875316479518915
4.003767223681565567972029 -0.02661450282663721869647055 1.978750492795331439310758
3.384917865954934601546711 -0.01466644607017878777777131 2.016082244343307738887461
3.392458932977467700453644 0.003584753218089822227737651 2.0095412876190197337678
3.392458932977467700453644 -0.03291764535844739214542898 2.0095412876190197337678
3.366795259862225719871276 -0.02502863856658110730535327 2.04182389842880640529188
3.370661782287901253596374 -0.008047508375633361313306047 2.033647796857613432308654
3.366795259862225719871276 0.008933621815314382944017702 2.04182389842880684938109
3.376231877452005480932939 -0.01834999790263919586252861 2.024647344830403206117353
3.384614610092525399664964 -0.0349178659549352760071983 2.017363521102499834825039
3.375282379379064057189908 -0.01707992880531833401747122 2.025596842903344629860385
3.37130802449843303136845 -0.03364779685761441069269395 2.0339795755438641045032
3.375282379379064057189908 0.01707992880531833401747122 2.025596842903344629860385
3.37130802449843303136845 0.03364779685761441069269395 2.0339795755438641045032
3.376231877452005480932939 0.01834999790263919239308166 2.024647344830403206117353
3.384614610092524955575755 0.03491786595493526906830439 2.017363521102499834825039
3.376535133314416015082315 -9.879861437059322959441943e-05 2.023366068071211110179775
3.375693467696429195257224 0.001584532621601936414404421 2.024108935074826920441637
3.374743969623487771514192 0.0003144635242810777677434364 2.025058433147768344184669
3.374636137168532279417832 -9.879861437058950264945151e-05 2.025265064217093957665838
3.402017278904532648908798 -0.04927642841657498690155492 2.001039911964814344003116
3.401039911964815587452904 -0.04927642841657498690155492 2.002040022263058549611969
3.401039911964814699274484 0.04927642841657497996266102 2.002040022263058549611969
3.402017278904532648908798 0.04927642841657497996266102 2.001039911964814344003116
3.402316519671147787562404 -0.04732169453713985785014984 2.000361785791712421200828
3.401700938523142703218127 -0.01471193278723154258813555 2.000723571583424842401655
3.402316519671147787562404 0.0178978289626767761433257 2.000361785791712421200828
3.400723571583425197673023 -0.01466644607017878604304784 2.001723681881668603921298
3.400361785791712776472195 0.01794331567972953095368993 2.002362006388200388329324
3.400361785791713220561405 -0.0472762078200871030397856 2.002362006388199944240114
4.045038947768284209871581 -0.004373805905785109818251222 2.01110748261215643850619
4.047519473884142016117949 0.02399847519583240412766045 2.014773386876739458273278
4.047519473884142016117949 -0.03274608700740262723360985 2.014773386876739458273278
4.040802391264628923295277 -0.04503894776828418905489926 2.008626956496298632259823
4.040802391264628923295277 0.04503894776828418211600535 2.008626956496298632259823
4.03832186514877022887049 -0.01666666666666666296592325 2.004961052231716056581945
4.034085308645114942294185 -0.001728550804076404989739757 2.002480526115857806246368
4.034085308645114942294185 0.03160478252925692788100065 2.002480526115857806246368
4.077103240285550711519136 -0.01818623790996120107021916 2.045289478195511545521867
4.070617402849507904250004 0.005726051814395343060593024 2.040578956391023268679419
4.077103240285550711519136 0.02963834153875187504834088 2.045289478195511989611077
4.065906881045020071496765 -0.04057895639102319929047979 2.034769241909285764080551
4.065906881045019183318345 0.0405789563910232131682676 2.03476924190928620816976
4.054710521804488543295975 0.01953848381857143171047575 2.024249005623059982639234
4.059421043608976376049213 -0.004373805905785092471016462 2.030058720104797487238102
4.054710521804488543295975 -0.02828609563014163746919039 2.024249005623059982639234
3.353826367126087948378199 -0.04534062311209788309618318 2.09916699023818686953291
3.353162698205763181391603 -0.01367330930239090032440874 2.098333980476373206158769
3.353826367126087948378199 0.01799400450731608938625961 2.09916699023818686953291
3.360158855073083206121964 -0.04586231167737837843834114 2.055849275927567276767149
3.356682285689379430237977 -0.04419629215375204395188646 2.07168293283242066493699
3.356110120210207270474712 -0.04833398047637364747242117 2.086280755337776682267759
3.356682285689379430237977 0.04419629215375203701299256 2.07168293283242022084778
3.356110120210207270474712 0.04833398047637364747242117 2.086280755337776238178549
3.360158855073083206121964 0.04586231167737839231612895 2.05584927592756683267794
3.360688002452344225190473 -0.03724315338634508198989437 2.052068844161310412488319
3.358447267468137376056347 -0.008047508375633361313306047 2.054137688322621002612323
3.360688002452344225190473 0.02114813663507836283272923 2.052068844161310412488319
3.35497069808443448835078 0.01500064714304031807112771 2.069971345227474834871373
3.353734863684936673422499 -0.0125289783440450629148355 2.08373615797101763291721
4.095792140053901242424672 -0.002416615249029077736736548 2.061332885654917124185204
4.097896070026949999487442 0.02670885813820591397904636 2.066353981390686378460941
4.097896070026949999487442 -0.03154208863626407899349857 2.066353981390686378460941
4.092425762600814920233461 -0.04579214005390165598274876 2.059228955681867478944014
4.092425762600814920233461 0.04579214005390166986053657 2.059228955681867923033224
4.090321832627765274992271 -0.01666666666666666296592325 2.054207859946098224668276
4.086955455174678952801059 0.001518191868296994099379882 2.052103929973049023516296
4.086955455174678952801059 0.03485152520163032480171594 2.052103929973049467605506
4.116287579379880767760369 -0.02992522306081315391912412 2.09621280244069385645389
4.113824586028898444567403 -0.004166284846090924018358059 2.092425604881388512268359
4.116287579379880767760369 0.02159265336863131629074886 2.09621280244069385645389
4.110037388469592656292662 -0.04242560488138891194864755 2.086671161482846148516046
4.110037388469592656292662 0.04242560488138889807085974 2.086671161482846148516046
4.103787197559304544824954 0.02334232296569315259771038 2.077129520524998440578202
4.107574395118610333099696 -0.002416615249029096385013915 2.082883963923540804330514
4.103787197559304544824954 -0.02817555346375133495939735 2.077129520524998440578202
3.374298804761050263323341 -0.02137386672918190760883661 2.145672671490232108482132
3.368640395145176658076025 0.003304809584615440391092145 2.141345342980463861692897
3.374298804761050263323341 0.02798348589841279099310611 2.145672671490232108482132
3.355902418745050130866048 -0.04756624973593864824650268 2.10440574006291258868373
3.358733068572680835472966 -0.03891159271640266120728668 2.116745078219811393438476
3.367501931566290629405103 -0.04134534298046401573634157 2.132194869754447275056464
3.358733068572680835472966 0.03891159271640264039060497 2.116745078219811393438476
3.367501931566290629405103 0.04134534298046401573634157 2.132194869754447275056464
3.355902418745050130866048 0.04756624973593862742982097 2.10440574006291258868373
3.354210232496305899019262 -0.04457289237166286999247689 2.101216875132030814654627
3.353930428946198638584519 -0.01367330930239090726330264 2.102433750264061096402202
3.354210232496305899019262 0.01722627376688106587421245 2.101216875132030814654627
3.356761078773828899102227 0.008012009647130672457260303 2.114773088420959901156948
3.359871532151566420054678 -0.01423291640260530843686837 2.12589555144582798007491
4.126609637763545279653954 0.001176563322027982449666239 2.124566925558482921587711
4.126687241373293346669016 -0.001021356102531290055424051 2.125665885270762611725104
4.125977933126089070015041 -0.0003972603918761200697540303 2.134509896655361504969051
4.125191021269136726346005 -0.01824049038057078825358914 2.142254948327680708075604
4.125191021269136726346005 0.01744596959681857240020975 2.142254948327680708075604
4.124617613987853204093881 -0.01886458609122596344342959 2.123596257885321580971549
4.12194618990379346712416 -0.03435468943586459517058884 2.114674642890974176623331
4.123908305740648927439906 -0.03450989665536136064005746 2.132440269269920918304706
4.123908305740648927439906 0.03450989665536133288448184 2.132440269269920918304706
4.124015817289233609699295 0.01886458609122591487117226 2.116744270276415207376886
4.122023793513541534139222 0.03450989665536133288448184 2.115773602603253866760724
4.123938213679485542684233 -0.01666666666666668378260496 2.115645310564135073150283
4.121344393205174760907994 -0.01981159541022633335805025 2.107822655282067358939457
4.121344393205174760907994 0.01352173792310699430851972 2.107822655282067358939457
3.394291710354539581828703 -0.002814214361636276258427092 2.162634515797975165440903
3.397145855177269968550036 0.0248108293262366344511527 2.166706597127760147714071
3.397145855177269968550036 -0.03043925804950918870273036 2.166706597127760147714071
3.390464926636244769042605 -0.04429171035453957627758825 2.159780370975244778719571
3.390464926636244769042605 0.04429171035453958321648216 2.159780370975244778719571
3.387610781813513938232063 -0.01666666666666666296592325 2.155708289645459796446403
3.383783998095218681356755 -0.002403480060844976565898046 2.15285414482272985381428
3.383783998095218681356755 0.0309298532724883515343528 2.15285414482272985381428
3.424870606619686785876411 -0.02115900475725541324267809 2.196029611376941748090985
3.418390886244429882623308 0.0042335513299621542818163 2.192059222753883762635496
3.424870606619686785876411 0.02962610741717972007158721 2.196029611376941748090985
3.414420497621372341257029 -0.04205922275388422615360895 2.186289170862790065541503
3.414420497621372341257029 0.04205922275388422615360895 2.186289170862790509630713
3.403970388623058340726857 0.0225783417255812912660673 2.176548730348638827081231
3.407940777246115438003926 -0.002814214361636278860512306 2.182318782239732524175224
3.403970388623058340726857 -0.028206770448853842048198 2.176548730348638827081231
4.115217334518917802199667 -0.02900052757122269578293761 2.194217862090140247488534
4.116281874124248396640269 -0.007231470057608655084557814 2.188435724180280317341385
4.115217334518917802199667 0.01453758745600536653186374 2.194217862090140247488534
4.121711298634073372681996 -0.03663412511761292289502734 2.16357659549667902254555
4.119358733406537353971544 -0.02506984929789362118168761 2.174461124253485699853172
4.117393394269873496682521 -0.03843572418028068371498307 2.184444853478958670223165
4.119358733406537353971544 0.02506984929789366281505103 2.174461124253485699853172
4.117393394269873496682521 0.03843572418028069759277088 2.184444853478958670223165
4.121711298634073372681996 0.03663412511761295065060295 2.16357659549667857845634
4.122952343715983403171776 -0.02036471884282236091689988 2.156682937441193548266938
4.121500578019781535488164 -0.0003972603918760755090447412 2.163365874882386741262508
4.122952343715983403171776 0.01957019805907019016633086 2.156682937441193548266938
4.119148012792246404956131 0.005102390846947397681776515 2.17425040363919386265934
4.118247213260912253929291 -0.003300791784279583519073897 2.178451994954807346971393
3.445461990742563429535039 -0.005506778161478896593816756 2.210117953510029487063093
3.447730995371281359496152 0.02328854591441838553511623 2.213428893133905450696375
3.447730995371281359496152 -0.0343021022373761891310906 2.213428893133905450696375
3.441514437702928752571552 -0.04546199074256394162540929 2.207848948881311557101981
3.441514437702928752571552 0.045461990742563962442091 2.207848948881311557101981
3.439245433074211266699649 -0.0166666666666666525575824 2.204538009257435593468699
3.435297880034577477914581 -0.00030445792747388111853038 2.202269004628717663507587
3.435297880034577477914581 0.03302887540585944942117536 2.202269004628717663507587
3.479541378411288299332682 -0.01539546625971410093169922 2.244936844671002518225578
3.472365422199138684788977 0.00781155641562511580261452 2.239873689342005480540365
3.479541378411288299332682 0.03101857909096432733275783 2.244936844671002518225578
3.467302266870142091192974 -0.03987368934200587189398135 2.23385012225692936027599
3.467302266870142535282184 0.03987368934200588577176916 2.2338501222569298043652
3.455063155328995883053267 0.01770024451386030539534744 2.222763399842857090504822
3.460126310657992920738479 -0.005506778161478900930625446 2.228786966927932766679987
3.455063155328995883053267 -0.02871380083681811593021571 2.222763399842856646415612
4.098824719529813087603998 0.03685857543858124529823073 2.238033855908768021691913
4.097649439059625642300944 -0.01666666666666668031315801 2.24225400724910350902519
4.098824719529813087603998 0.003525242105247907657000761 2.238033855908768021691913
4.09525856079383210328615 0.01188491013507773919055666 2.247649439059625997572311
4.09404296299822423321757 -0.01909786225788159819138912 2.248824719529812998786156
4.09404296299822423321757 0.04286768252803707657250243 2.248824719529812998786156
4.096879112411652812397733 -0.04764943905962601422565683 2.24148368060113023503277