# geometry NO_DATA 540
#  x  y  z
3.64516332939262577284012 0.03842887134713524749374258 1.893265541954509467714729
3.640326658785252078587291 -0.01666666666666674970209705 1.889377765066193592957688
3.64516332939262577284012 0.005095538013801918959810866 1.893265541954509467714729
3.638671605675331655049831 0.01335656044682688448066443 1.890326658785252078587291
3.641853223172786702122039 -0.01030343167175836946447554 1.89516332939262577284012
3.641853223172786702122039 0.0370165525654122251619782 1.89516332939262621692933
3.644900114828204529260347 -0.04032665878525200364723702 1.893951221109145821586139
3.643245061718284105722887 -0.04032665878525200364723702 1.894900114828204085171137
3.643245061718284549812097 0.04032665878525192038051017 1.894900114828204085171137
3.644900114828204085171137 0.04032665878525192038051017 1.893951221109146043630744
3.693196992347611562479415 -0.003116800179078763836232335 1.863577940896182116858881
3.696598496173806314146759 0.02341352550186609482452127 1.866951370313781888299332
3.696598496173806314146759 -0.02964712586002361122128335 1.866951370313781888299332
3.686112181164424406176749 -0.02795955103136295652466181 1.876248522150145925380116
3.69516012717296682410506 -0.04319699234761152639716641 1.87540473473581537078303
3.672847018323951662210902 -0.03476255868375142943360601 1.88856479127156018371636
3.672847018323952106300112 0.03476255868375140861692429 1.88856479127156018371636
3.686112181164424406176749 0.0279595510313629287690862 1.876248522150145925380116
3.69516012717296726819427 0.04319699234761151251937861 1.87540473473581537078303
3.684149046339069144551104 -0.001429225350418109139610801 1.864421728310512671455967
3.678502604156721034200928 0.009863659014278164036126917 1.868638945142442775448899
3.66523744131624873432429 0.01476887922854997793609133 1.880955214263856811740538
3.657618720658124544797829 0.03286477124563473573015671 1.889054266553340966083852
3.657618720658124544797829 -0.003327012788534768148590581 1.889054266553340966083852
3.738683524479831987719081 0.006787591544893183462261455 1.873043604625947988751022
3.74434176223991599385954 0.02880444935805823170049678 1.879112495971643870262824
3.74434176223991599385954 -0.0152292662682718769190382 1.879112495971643648218219
3.721761282431185868802004 -0.0318285714562952237738358 1.866411091284687628899519
3.735000472586084363513237 -0.03868352447983171293888205 1.874710743878698959719031
3.710752853524604155666111 -0.04314504697646352054940522 1.867527786768397479733039
3.710752853524604155666111 0.04314504697646351361051131 1.867527786768397479733039
3.721761282431186756980424 0.03182857145629524459051751 1.866411091284687850944124
3.735000472586084363513237 0.03868352447983172681666986 1.874710743878699403808241
3.725444334324933493007848 -0.009811713643130166861983099 1.86474395203193665793151
3.717863381930119448526284 0.005350191146498394813291188 1.862513190783620764534589
3.706854953023537291301182 -0.003116800179078754728934086 1.863629886267330393323505
3.703427476511768734468433 0.02336158013071809591565398 1.866977342999355915509341
3.703427476511768734468433 -0.02959518048887560537352215 1.866977342999355915509341
3.777987968728080847569117 0.005043096514928194218363444 1.877055127786845023507567
3.78027630675023562645265 -0.0004664204706184543053337777 1.87980988627961842496461
3.778868574835826166236075 -0.002349043358201952785835331 1.888376429848261039978752
3.775172504899261483046757 -0.02405880653979681343956898 1.89418821492413025353585
3.775172504899261483046757 0.01936071982339290786789832 1.89418821492413025353585
3.776127181001275534555361 -0.00876467196853993393834692 1.875660760530657888978112
3.76756063743263291954122 -0.02496491816458814433365987 1.879287766538413340100533
3.768013693245029216427611 -0.03837642984826152708910385 1.889248677363243533733339
3.76756063743263291954122 0.02496491816458815821144768 1.879287766538413784189743
3.768013693245029216427611 0.03837642984826152015020995 1.889248677363243533733339
3.776127181001275090466152 0.008764671968539947816134728 1.875660760530657444888902
3.773838842979120755671829 -0.003255154982993285414649698 1.872906002037884265476464
3.771978055252314554479653 0.0004664204706184675868103906 1.871511634781696908902404
3.763411511683672827643932 0.006787591544893179992814503 1.875138640789452804114035
3.756705755841836413821966 0.02670941319455312837338745 1.88016001405339627794433
3.756705755841836413821966 -0.01313423010476678226554625 1.880160014053396055899725
3.58479028150607792468918 0.0121933301557139057991197 1.929639716905111157529973
3.592395140753038340619696 0.03031694499512641027827442 1.936464856069340711997029
3.592395140753039228798116 -0.005930284683698642048121918 1.936464856069340711997029
3.581626836766173660464574 -0.01150834421363121709558364 1.94313518097980630905397
3.576110646913376989175504 0.008095351079314737699488269 1.936270361959612440472256
3.581626836766174548642994 0.02769904637226063351396199 1.94313518097980630905397
3.583430736236606239941693 -0.01842408300063852130690201 1.93197378806386166338882
3.591914303650553197400086 -0.03479028150607917091452492 1.938220687222331761745409
3.581233747837093694954547 -0.01990416345417191437694449 1.934170776463373986331362
3.585431657457363918695137 -0.0362703619596125639845674 1.942654343877320499700545
3.581233747837093694954547 0.01990416345417200805201219 1.934170776463373986331362
3.585431657457363918695137 0.03627036195961261949571863 1.942654343877320499700545
3.583430736236606239941693 0.0184240830006386011041819 1.93197378806386166338882
3.591914303650552753310876 0.03479028150607921948678225 1.938220687222331761745409
3.576306714092130967230787 -0.000300468161225973134399736 1.923392817746641059173385
3.57542800592514575797054 0.00145694817274591393793659 1.923971057752400515283853
3.573231017525633212983394 0.002937028626279323054171222 1.926168046151913282315604
3.571912737293106321345704 -0.0003004681612259566545267142 1.927786794545665927103073
3.636293489620355590119516 -0.03581075221687950171922665 1.92128187606360922856652
3.621281876063608962112994 -0.03581075221687950865812056 1.935711874474799643053302
3.621281876063608962112994 0.03581075221687950865812056 1.935711874474799643053302
3.636293489620355590119516 0.03581075221687950865812056 1.92128187606360922856652
3.637117851005053914548171 -0.005787525103385869271188646 1.907094623891560036810233
3.629200861339866968080514 0.01335656044682697121683823 1.914189247783120606527518
3.637117851005053470458961 0.03250064599703980650069468 1.907094623891560036810233
3.614189247783119895984782 0.01219333015571386416575628 1.928619246194310576925091
3.607094623891559326267497 0.03133741570592671332740053 1.935954620713940643739193
3.607094623891559770356707 -0.006950755394498981526441028 1.935954620713940643739193
3.791036187146540559211871 0.001992817183175556346175217 1.918293554778380149983263
3.795518093573269968743489 0.02636233766304985071116107 1.923141390276571716100307
3.795518093573269968743489 -0.02237670329669873975353411 1.923141390276571716100307
3.786010238560835183818654 -0.0410361871465409616677178 1.913811648351650518407041
3.786010238560835183818654 0.0410361871465409616677178 1.913811648351650518407041
3.781528332134105774287036 -0.01666666666666666296592325 1.908963812853459174334603
3.776502383548401287072238 -0.01131285621166098695478119 1.904481906426729320713775
3.776502383548401287072238 0.02202047712167234938540616 1.904481906426729320713775
3.830053455278202623190964 0.008728918601179573577564241 1.928675463322974792390596
3.834073416589984795166401 -0.0006889959776142755287775543 1.933384420612371812353558
3.835602128234910423998372 0.003746419267462348240416148 1.942062251934512540074707
3.833110878568052104498065 -0.02164916600038387789473049 1.946031125967256247832893
3.833110878568052104498065 0.02914200453530865764228963 1.946031125967256247832893
3.826761155376448009235446 -0.01531351840468818392704264 1.926072159398835026422603
3.818083324054308391737322 -0.03129118909374065116146824 1.927413065979229900293035
3.822904335600986858167971 -0.04206225193451297583724369 1.938694201225510393982177
3.818083324054308391737322 0.0312911890937405817725292 1.927413065979229900293035
3.822904335600986858167971 0.04206225193451290644830465 1.938694201225510838071386
3.826761155376448009235446 0.01531351840468812321172098 1.926072159398835026422603
3.822741194064665393170799 -0.005895603825894335688062586 1.921363202109438006459641
3.819448894162911223304491 0.0006889959776142141629345916 1.918759898185297796402438
3.810771062840771605806367 0.001992817183175556346175217 1.92010080476569311436208
3.805385531420385269996132 0.02455508767573657061267234 1.92404501527022842033432
3.805385531420385269996132 -0.02056945330938546312449233 1.924045015270228198289715
3.537626833263587400324468 0.00749596891414076003934408 1.97445448452681593387581
3.543813416631793167255182 0.02845613551106158239933919 1.980349218949013501145373
3.543813416631793167255182 -0.0134641976827801074234614 1.980349218949013945234583
3.518687577615414063814114 -0.02742674350120042486844696 1.996114321116614798157229
3.51517230713278516773812 -0.001864767934637445809947787 1.992228642233229596314459
3.518687577615414063814114 0.02369720763192553064646617 1.996114321116614798157229
3.534428275420545162432973 -0.02162179870289812622097259 1.980134775490291154653733
3.543092424806867146713785 -0.03762683326358749746898269 1.984213576000350087724655
3.52783387100546974579629 -0.02622360767254027641426362 1.986729179905366127201205
3.52723230309113988667491 -0.04222864223322964072337982 1.995393329291688333526622
3.52783387100546974579629 0.02622360767254027294481666 1.986729179905366127201205
3.52723230309113988667491 0.04222864223322964766227372 1.995393329291688333526622
3.534428275420545162432973 0.02162179870289816091544211 1.980134775490291154653733
3.543092424806866702624575 0.03762683326358752522455831 1.984213576000350087724655
3.528962683877264971954446 -0.0006616321059772593002681895 1.970375684016757000804887
3.526485117859149642782768 0.004293499930254200160073541 1.972191617928895412958923
3.519890713444074226146085 0.008895308899896309587362886 1.978786022343970829595605
3.515773875047115026859501 -0.0006616321059772997410092232 1.983564492846907612033647
3.580361703013063223721701 -0.03801266292243880157153413 1.96798069414007326116689
3.567980694140072905895522 -0.03801266292243879463264022 1.980062011930476817411773
3.567980694140072905895522 0.03801266292243883626600365 1.980062011930476817411773
3.580361703013063223721701 0.03801266292243883626600365 1.96798069414007326116689
3.580755686284761374338359 -0.01325064517645745468255036 1.955993668538780649868158
3.574368345950551972833864 0.008095351079314720352253509 1.961987337077561344145238
3.580755686284761374338359 0.02944134733508685375369396 1.955993668538780649868158
3.561987337077560766829265 0.007495968914140761774067556 1.974068654867965122434725
3.555993668538779850507581 0.02884196516991288650189063 1.980156304119588206447133
3.555993668538779850507581 -0.01385002734163140805656589 1.980156304119588206447133
3.843914632988563617743694 -0.004087007998611874755312545 1.962375196345462757818723
3.846957316494281631236163 0.02316095832328593853710608 1.965622342173772851836588
3.846957316494281631236163 -0.0313349743205096065157278 1.965622342173772185702774
3.840497192794679826022275 -0.04391463298856447539098014 1.959332512839744966370858
3.840497192794679826022275 0.0439146329885644060020411 1.959332512839745188415463
3.837454509288962256619016 -0.01666666666666674276320315 1.956085367011435316442203
3.834037069095078464897597 -0.002338947743973170904224768 1.953042683505717747038943
3.834037069095078464897597 0.03099438558936016066547303 1.953042683505717747038943
3.884522255892719933001445 0.01629588029493460321628362 1.98195901758808057380179
3.892261127946360588225616 0.03415146952098789545626545 1.990701419015241002696825
3.892261127946360588225616 -0.001559708931118720248720777 1.990701419015241002696825
3.876368131719074128227476 -0.02745015866543410593125785 1.975179209159686921637444
3.889498749772098307175838 -0.03452225589271996908369289 1.988124434026844911116427
3.867440337106046843729246 -0.04292790277271414656201642 1.973730166440074373923608
3.867440337106047287818456 0.04292790277271407717307738 1.973730166440075040057422
3.876368131719074572316686 0.02745015866543406429789442 1.975179209159687587771259
3.889498749772098307175838 0.0345222558927199899003746 1.988124434026845133161032
3.871391637839696642231502 -0.009594569439380789405147354 1.969013792720922584322807
3.865999891840312674418101 0.001188922559386582870205595 1.964810969280925689872674
3.857072097227285389919871 -0.004087007998611864346971689 1.963361926561313142158838
3.853536048613642073235042 0.02217422810743561317758932 1.966115707281697710939738
3.853536048613642073235042 -0.03034824410465927768676409 1.966115707281697710939738
3.901133808557140980610711 -0.04846252374299547804881172 1.999596332300135337334268
3.901172405828367661939637 -0.01593652580939110621760513 1.999192664600270896713141
3.901133808557140980610711 0.01658947212421318234687462 1.999596332300135559378873
3.900768738128502555184696 -0.04919266460027095499984995 1.999410939114269147864889
3.900768738128502555184696 0.04919266460027103132768289 1.999410939114269369909493
3.9004036676998650179371 0.04882187822853895076136155 1.999225545928403180440114
3.900807335399729680602832 0.0162958802949346552579879 1.999007271414404929288366
3.9004036676998650179371 -0.01623011763866971657321869 1.999225545928403180440114
3.492576096885174230521898 -0.002026971972603652805133834 2.014743750461856386380077
3.496288048442587115260949 0.02388245824590468427417456 2.018351646251475450810631
3.496288048442587115260949 -0.02793640219111197253720746 2.018351646251475450810631
3.457027551795494701991629 -0.04154315963337346789829851 2.048570711428868040826501
3.455657708754444890075774 -0.01106840344230395484226293 2.047141422857736259288686
3.457027551795494701991629 0.01940635274876582536118796 2.048570711428867596737291
3.486487865079642034515928 -0.02687185587474321540879529 2.027245101527800130725154
3.495302411241092421789745 -0.04257609688517500351467859 2.026712828369615415624594
3.474962438541519205159602 -0.0314371818473046654718317 2.03877052806592207190306
3.469909449648485022521527 -0.04714142285773643969992719 2.047585074227372903266087
3.474962438541519649248812 0.03143718184730436016049993 2.03877052806592251599227
3.469909449648485022521527 0.04714142285773617602195884 2.047585074227372903266087
3.486487865079642034515928 0.02687185587474316683653797 2.027245101527800130725154
3.495302411241092421789745 0.04257609688517497575910298 2.026712828369615415624594
3.483761550723723843248081 -0.0009624256562349002303707879 2.015276023620040657391428
3.478658956119685896624105 0.009242763551841618602233908 2.019416192567843992833332
3.46713352958156306726778 0.01380808952440281192619587 2.030941619105966822189657
3.46071069764747907271385 -0.000962425656235152415796108 2.038326876696285427925659
3.518328511433909344674476 -0.04271493989194526108565952 2.010927562067895024711106
3.510927562067895024711106 -0.04271493989194526108565952 2.018247409414926085702291
3.510927562067895024711106 0.04271493989194525414676562 2.018247409414926085702291
3.518328511433909344674476 0.04271493989194525414676562 2.010927562067895024711106
3.5184444287860565658832 -0.02791304115991604176127971 2.003642530054027037778042
3.514686009474069283697872 -0.00186476793463745513408647 2.007285060108054075556083
3.5184444287860565658832 0.02418350529064114406985198 2.003642530054027037778042
3.507285060108054963734503 -0.00202697197260364586623993 2.014604907455086024725688
3.503642530054027481867251 0.02402130125267494878404939 2.018282224748090492028041
3.503642530054027481867251 -0.02807524519788223010818839 2.018282224748090047938831
3.935869401715591298085428 0.01277199603795537742600974 2.02884992963671884069754
3.942934700857795071726741 0.0319747310868806478012516 2.036503961846825916381931
3.942934700857795071726741 -0.006430739010969859122124337 2.036503961846825916381931
3.926633104619766889697985 -0.03586940171559193507588859 2.021784630494514622967017
3.926633104619766889697985 0.03586940171559190038141907 2.021784630494514622967017
3.919567805477563116056672 -0.01666666666666669766039277 2.014130598284407547282626
3.910331508381738707669228 -0.03006712409379928147012961 2.007065299142203773641313
3.910331508381738263580019 0.003266209239534053569015137 2.007065299142203773641313
3.961927972902764771845341 -0.03171744057583466419592 2.043645413478599515144651
3.965495866233482935570009 -0.0110932802853020723993227 2.037290826957199207924987
3.961927972902764771845341 0.009530880005230552357020635 2.043645413478599515144651
3.959141279712082628350345 -0.03729082695719929119171354 2.041698078164243757015583
3.959141279712082628350345 0.03729082695719925649724402 2.041698078164243757015583
3.956354586521400040766139 0.03339615632848799697818265 2.039750742849887998886516
3.962709173042800792075013 0.01277199603795537569128626 2.035343491642843449795919
3.956354586521400040766139 -0.007852164252577217840034507 2.039750742849887998886516
3.44597390471379805276797 -0.005821763651793832212988367 2.059448546793636758422963
3.447986952356898449068012 0.02348547439533897607244484 2.062857950657973393759903
3.447986952356898449068012 -0.0351290016989262987578968 2.062857950657973393759903
3.439921806073048315965934 -0.002217247363599967723696293 2.092139053436648410411181
3.431752322881550298916409 0.01539419284303118924672749 2.084278106873297620182939
3.439921806073048315965934 0.03300563304966234318138518 2.092139053436648410411181
3.438942221945270105720738 -0.02991591528520393464263272 2.076301650564804646137418
3.447579893897638747546353 -0.04597390471379947385344167 2.073695107357943712145243
3.43214954948505468479425 -0.01822011744470228289394242 2.083094323025020067063906
3.440150984525605970532069 -0.03427810687329782557419833 2.091731994977388708889521
3.43214954948505468479425 0.01822011744470228289394242 2.083094323025020067063906
3.440150984525605970532069 0.03427810687329781863530442 2.091731994977388708889521
3.438942221945270105720738 0.02991591528520359810627838 2.076301650564805090226628
3.447579893897638747546353 0.04597390471379912690874647 2.073695107357944156234453
3.437336232761428966853146 -0.0006086772380714625682932017 2.062055090000498580593558
3.430711608452160721327573 0.01264057138046580444634692 2.068071037071696149922673
3.423918935991946188579504 0.0009447735399644923781972694 2.074863709531911126759951
3.423750887840999457267799 -0.000608677238071125923518645 2.075640434920928978357324
3.456989638244707840897263 -0.04721927237098309804164131 2.054190506632526780350645
3.454190506632525803354383 -0.04721927237098309804164131 2.059612958139963367898417
3.454190506632526691532803 0.04721927237098284130256687 2.059612958139964256076837
3.456989638244707840897263 0.04721927237098284130256687 2.054190506632527224439855
3.456988627038871442209711 -0.04162100914662011930111873 2.051390363814507900031003
3.455579859241197926422728 -0.01106840344230394096447512 2.05278072762901686587611
3.456988627038871442209711 0.01948420226201248717234904 2.051390363814508344120213
3.452780727629016332969059 -0.00582176365179374894626152 2.058203179136453897513093
3.451390363814507811213161 0.02473084205252268352737133 2.062235266829381963304968
3.451390363814507811213161 -0.03637436935610992294609645 2.062235266829381519215758
3.987112562774485446936978 0.01049684892656155277279595 2.076469195022128566563424
3.993556281387242723468489 0.0309427450343804019694538 2.083607234205985481168
3.993556281387242723468489 -0.009949047181257291219691474 2.083607234205985481168
3.979676307911257815419503 -0.0371125627744855121625811 2.070025476409370845942703
3.979676307911257815419503 0.0371125627744855052236872 2.070025476409370845942703
3.973232589298500982977203 -0.01666666666666667337426411 2.062887437225514375427338
3.965796334435273795548937 -0.02398071751081653005255312 2.056443718612756654806617
3.965796334435273795548937 0.009352615822516795879293383 2.056443718612756654806617
4.025306626537666687681849 0.0004803205981856244156588676 2.075173694060519213877569
4.025513553717472881032791 -6.646623857349007538381641e-05 2.075447087478898389178994
4.020330391583528673038472 -0.01029985802931405666771347 2.083813653931518405926226
4.014940302269778271693212 -0.0274468452941663554334184 2.091906826965758803282824
4.014940302269778271693212 0.006847129235538240363267981 2.091906826965758803282824
4.025042098428453840597285 -0.001009376816610296941079117 2.074975632189880236921908
4.016675531975833379760843 -0.01760957724470347748879639 2.080257289772447837350455
4.011756897951102018851088 -0.03381365393151897213996904 2.088821918095706386964139
4.016675531975833379760843 0.01760957724470348095824335 2.080257289772447837350455
4.011756897951102018851088 0.03381365393151897213996904 2.088821918095706386964139
4.025042098428453840597285 0.001009376816610294338993903 2.074975632189880236921908
4.024835171248647647246344 -0.0004625899798511823009586341 2.074702238771501061620484
4.0245706431394356883402 6.646623857348769013903694e-05 2.074504176900862084664823
4.016204076686815227503757 0.01049684892656156144641333 2.07978583448342968509337
4.008102038343407613751879 0.02762610557307941874793933 2.085265553936635818388368
4.008102038343407613751879 -0.006632407719956290650942243 2.085265553936635818388368
3.444868421451993345527853 -0.01462949756117967736734897 2.106150163100748429201303
3.447434210725996539537164 0.01357225722414801862003575 2.104602958379489408002883
3.447434210725996539537164 -0.04283125234650717733098091 2.104602958379489408002883
3.446797973814178739360159 -0.0448684214519943572185845 2.103584373826745679281203
3.446797973814178739360159 0.04486842145199416986844909 2.103584373826746123370413
3.444232184540175545350849 -0.01666666666666685378550561 2.105131578548005144568833
3.446161736902361383272364 0.01026261429502536327851292 2.102565789274002394648733
3.446161736902360495093944 0.04359594762835869441452985 2.102565789274002394648733
3.488695556731981728404435 -0.004066770786650861571609461 2.142762327518632492484585
3.480204287088041414932604 0.01479121758394804156400149 2.135524655037265517876222
3.488695556731981728404435 0.03364920595454691520931334 2.142762327518632492484585
3.472966614606673552145821 -0.03552465503726554008068206 2.127114245404709613751493
3.472966614606673552145821 0.03552465503726556783625767 2.127114245404709613751493
3.457237672481366264065628 0.004228490809419419189929545 2.111466163290786290929191
3.464475344962733238673991 -0.014629497561179458792191 2.119876572923342639143129
3.457237672481366264065628 -0.03348748593177836019307847 2.111466163290786290929191
4.034234080917249443132278 0.01081905829093308436805732 2.126584977373682683321476
4.037731334176824837811637 -0.003824551771783329338211255 2.133906782405040836181342
4.038379885753195175368546 0.005121654924523622379184395 2.144152391624265518998982
4.035531184069990118246096 -0.02236407003307612842424312 2.147076195812132493045965
4.035531184069990118246096 0.03260737988212337318261191 2.147076195812132493045965
4.033898683018387387733128 -0.0313102767293830797079579 2.130074131246603386102834
4.023339224858263563078253 -0.03715788510511666697944122 2.116331268767803308605835
4.034547234594757725290037 -0.04415239162426641550407425 2.140319740465828068920473
4.034547234594757725290037 0.04415239162426641550407425 2.140319740465828068920473
4.027171876016701013156762 0.03131027672938308664685181 2.120163919926240758684344
4.026836478117838069579193 0.04415239162426642938186205 2.123653073799161461465701
4.023674622757125618477403 -0.01666666666666666990481716 2.112842114894882605824478
4.016612417856577188501888 -0.02314197292419739940272372 2.106421057447441125276555
4.016612417856577188501888 0.01019136040913594387635754 2.106421057447441125276555
3.496385403305402039819683 -0.01526589383978842369427031 2.154314983108036152259501
3.498192701652700797865236 0.01445284279894741737149122 2.153208071174177007378603
3.498192701652700797865236 -0.04498463047852409302240773 2.153208071174176563289393
3.497254977111341478490658 -0.04638540330540250750113174 2.152507684760737394213947
3.497254977111341478490658 0.04638540330540233402878414 2.152507684760737838303157
3.495447678764043164534314 -0.01666666666666683643827085 2.153614596694596983184056
3.49631725256998260320529 0.01117662088935035720471678 2.151807298347298669227712
3.49631725256998260320529 0.04450995422268368140183981 2.151807298347298669227712
3.540531049241050443043832 -0.001941721592020253985694245 2.192472770833070683238475
3.531556368370917908805495 0.01633715340745589550408567 2.184945541666142077019686
3.540531049241049998954622 0.0346160284069320714483986 2.192472770833070683238475
3.524029139203989746675916 -0.03494554166614283891023618 2.176506490579843244859148
3.524029139203989302586706 0.03494554166614281809355447 2.176506490579843244859148
3.507527229166928606218789 0.003012981159687897966814596 2.160540210326615806479822
3.515054458333856324259159 -0.01526589383978827797749833 2.168979261412914638640359
3.507527229166928606218789 -0.03354476883926442443151217 2.160540210326615806479822
4.037626120734717716231899 0.003735269576656170126272016 2.166109148841938392138218
4.034114512549852094025482 -0.01075848594638942681833704 2.173356026603461277346696
4.024113864228594295013863 -0.009242810696124738323309344 2.187068602909989500915344
4.017624824092203006387081 -0.02964474693944757488495156 2.193534301454994395186304
4.0176248240922038945655 0.01115912554719807048275726 2.193534301454994395186304
4.027753483858607097545246 -0.03116042218971227031887317 2.166994997912218057223299
4.028446676532540848825192 -0.04409181927972279091410002 2.156794029790556344039487
4.017752835537351074890466 -0.03706860290998947177198986 2.180707574218745836702738
4.017752835537351074890466 0.03706860290998950646645937 2.180707574218745836702738
4.034807705223784957127009 0.03116042218971229807444878 2.163155058481799564162884
4.024935068347675226618776 0.03706860290998950646645937 2.164040907552078785158756
4.038319313408651467511845 -0.0166666666666666664353702 2.155908180720276678954406
4.035500897897718708406956 -0.0007865257957535830854803316 2.152954090360137850979072
4.035500897897718708406956 0.03254680753757974859263769 2.152954090360138295068282
3.549436118207758283915609 -0.01637702872166493447969593 2.200708700764741454491968
3.549718059103878609050753 0.01639242281942742546219094 2.200571578841121755942822
3.549718059103878609050753 -0.04914648026275736381052184 2.200571578841121755942822
3.549553302474273142053107 -0.04943611820775901943836317 2.200426759868620685267615
3.549553302474273586142317 0.04943611820775909576619611 2.200426759868620685267615
3.549271361578153261007174 -0.01666666666666659357698421 2.200563881792240383816761
3.549388545844667675055462 0.01577327161521501971974679 2.200281940896120058681618
3.549388545844667675055462 0.04910660494854834912104025 2.200281940896120058681618
3.599976859212952184918777 0.04986901604063998655336221 2.24989215682768683990389
3.599953718425905169198131 -0.01666666666666687807163427 2.249911367233273118415582
3.599976859212952184918777 0.0165356827073066467437279 2.24989215682768772808231
3.590931670747665283016659 -0.00137742868981305843952001 2.24230909943747835910699
3.581932763856472412555831 0.01662038509257206253533212 2.234687621236098653554336
3.599513116737604434547393 -0.04995371842590561051178355 2.249470765544972827854053
3.574288144868045691282532 -0.03466448044905178632602016 2.225810392530359838048071
3.582846450070937383003411 -0.04995371842590560357288965 2.232991269043439253039196
3.590491069059361883830661 0.03466448044905158509809695 2.241868497749175404010202
3.573847543179742736185744 0.03471076202314618552868808 2.225369790842056438862073
3.599513116737602658190553 0.04995371842590540234496643 2.249470765544970163318794
3.557644618988425655459196 0.001667066634814510887874217 2.209311685623240428810732
3.565289237976852820821705 -0.01637702872166500386863497 2.218188914328979688406207
3.557644618988425655459196 -0.03442112407814451602305894 2.209311685623241316989152
3.600105055198126624560473 -0.04987434439270058139648256 2.249979399590827711108432
3.60008342821282179002651 -0.01658221187771223917306607 2.249958799181655422216863
3.600105055198126624560473 0.01670992063727628346159193 2.249979399590827711108432
3.600062827803649057045732 -0.0499587991816551960089221 2.249937048398195305054514
3.600062827803649501134942 0.0499587991816550086587867 2.249937048398194860965305
3.60002060040917237770941 0.04987409679638959980607638 2.249894697205562010822177
3.600041200818344666600979 0.01658196428140107023252448 2.249916447989022572073736
3.6000206004091719336202 -0.01671016823358727199089202 2.249894697205562454911387
4.028731335987643547014159 0.0009596443598747173226240492 2.222228308372232508105526
4.02758540126372732714799 -0.003251513807705060099539907 2.22433388745602211855612
4.018395562861124759024278 -0.01512816299749933542095892 2.234292977693208115397283
4.010351659182437522588316 -0.03275447402404071950421383 2.242146488846604057698642
4.010351659182438410766736 0.00249814802904206731057335 2.242146488846604501787851
4.019894934892045412766493 -0.02087782483424643897862438 2.216643421084340204174623
4.014793707364045616259318 -0.0365848471410383721535986 2.207830265571069094932
4.010705096489442844642781 -0.03429297769320806960058334 2.226602511321525756926576
4.010705096489442844642781 0.03429297769320804878390163 2.226602511321525756926576