# geometry NO_DATA 600
#  x  y  z
0.9985381565504265477528634 0.04142916623273355802847817 0.5928910096823070130511724
0.9970763131008532065280292 -0.01666666666666666990481716 0.5942527396667933725638022
0.9985381565504265477528634 0.008095832899400218218843861 0.5928910096823070130511724
0.9931308191643823946037628 0.008775678793725087689647779 0.5970763131008531843235687
0.990647168677485034926633 -0.02163396764046138578962974 0.5985381565504266365707053
0.990647168677485034926633 0.03918532522791155769947835 0.5985381565504266365707053
0.9962937620828595797206617 -0.04707631310085313991464773 0.5934701886487998567787372
0.9923482681463886567740929 -0.04707631310085314685354163 0.5962937620828596685385037
0.9923482681463888788186978 0.04707631310085314685354163 0.5962937620828595575162012
0.9962937620828595797206617 0.04707631310085314685354163 0.5934701886487997457564347
1.043950352223369293369615 0.02117934342642895442776485 0.5772289912030595937508792
1.037900704446738764374913 -0.0166666666666666664353702 0.5795400239365839922811574
1.043950352223369293369615 -0.01215398990690437844297556 0.5772289912030595937508792
1.02493914046700229647513 -0.00925646129280621385304606 0.5841956017598087802511486
1.018027224263896357570047 0.004567371113405515638261623 0.5865401468495090586685592
1.037234204836448014930284 -0.0379007044467388615194281 0.5788735243262930207919226
1.014322121576966218015059 -0.030490499072878405467657 0.5874216761023794974860834
1.020567538169781185430907 -0.0379007044467388615194281 0.584410631402388247579438
1.0242726408567115470305 0.03049049907287840199821005 0.5835291021495178087619138
1.013655621966675468570429 0.04258979462613954325433951 0.5867551764920885259968486
1.037234204836448014930284 0.0379007044467388615194281 0.5788735243262930207919226
1.003705102686930139554988 0.03694264775801995442927605 0.5906477504449502147210183
1.007410205373860279109977 0.01101951979854707587558327 0.589766221192079775903494
1.003705102686930139554988 -0.01490360816092579920866257 0.5906477504449502147210183
1.089674550811481568146633 -0.004274995703354152881692229 0.56652128467017470736522
1.094837275405740717459935 0.01873288844146069401230825 0.5675543955575717003370073
1.09483727540574093950454 -0.02728287984816899630624576 0.5675543955575717003370073
1.074590159791334986749689 -0.02824515425361626141942395 0.5682489423131868999661265
1.085542128179069365501164 -0.03967455081148150985992373 0.5687300795159107025256162
1.063086217718927750652824 -0.03857060344213475433505778 0.5713922038754395416049192
1.063086217718927750652824 0.03857060344213475433505778 0.5713922038754395416049192
1.074590159791334986749689 0.02824515425361626141942395 0.5682489423131868999661265
1.085542128179069143456559 0.03967455081148150985992373 0.5687300795159107025256162
1.078722582423747411439763 -0.005237270108801424933764324 0.5660401474674510158280327
1.0729333386302726260908 0.006341217478148171785012899 0.5665921211521244282849352
1.06142939655786516794933 -5.469435364324180825785354e-05 0.5697353827143769589014255
1.055714698278932495156823 0.02184924242182484724339453 0.5723266705919560770610133
1.055714698278932495156823 -0.02195863112911132508653367 0.5723266705919560770610133
1.140186288353034260723007 -0.004358357800947411028746892 0.5659678660798255211972219
1.145093144176517307997187 0.019161263885419967806234 0.5672151646892021892298885
1.145093144176517307997187 -0.02787797948731478986372778 0.5672151646892021892298885
1.122912130523132656634289 -0.0303102600031251862011672 0.5660591755034316552297469
1.134640783014844833687107 -0.04018628835303404700507457 0.5672753157613368291123379
1.111152319679948874409092 -0.04012397165009114197165019 0.5673481551616048612629584
1.111152319679948874409092 0.040123971650091155849438 0.5673481551616048612629584
1.122912130523132656634289 0.030310260003125200078955 0.5660591755034316552297469
1.134640783014844611642502 0.04018628835303406088286238 0.5672753157613368291123379
1.128457635861322083670188 -0.006790638316757799559930664 0.5647517258219203473146308
1.121635839193092731846946 0.006852955019700722807951543 0.5647828841733918414647064
1.109876028349908949621749 -0.00427499570335414420807485 0.5660718638315651585202204
1.104938014174954519219796 0.01918230928007032959348166 0.5673296851382669814256587
1.104938014174954519219796 -0.02773230068677862494852526 0.5673296851382669814256587
1.189018280786813486216147 -0.001875800448037234866710543 0.5683771523225014110636266
1.194509140393406720903613 0.02047581367210937405842763 0.5702817258252226295667242
1.194509140393406498859008 -0.02422741456818384292448698 0.5702817258252226295667242
1.172984720076990949877427 -0.02872885260596486772799452 0.5672997726235108340020474
1.184506672653233394498784 -0.03901828078681327666155099 0.5695504916424013464038012
1.161808913016917799154726 -0.03971057181915159384200109 0.5679630674497770925768236
1.161808913016917577110121 0.039710571819151600780895 0.5679630674497770925768236
1.172984720076990949877427 0.02872885260596487813633537 0.5672997726235108340020474
1.184506672653233394498784 0.03901828078681327666155099 0.5695504916424014574261037
1.177496328210570819550185 -0.006377238485818262705984161 0.5661264333036107876395704
1.171465235240921831660899 0.005684947453479944658172318 0.5657802877874416047632167
1.160289428180848680938198 -0.004358357800947413630832106 0.5664435826137079743602953
1.155144714090424296060178 0.01868554735153751811260747 0.5674530229561434158114253
1.155144714090424518104783 -0.02740226295343234363954821 0.5674530229561434158114253
1.233515610194726663806364 0.006830598108111277100285008 0.5782330221926621494077381
1.241757805097363220880879 0.02367954163617154786369845 0.5817394596774145831830083
1.241757805097363220880879 -0.01001834541994899886729886 0.5817394596774145831830083
1.226800697432259390495801 -0.01712477314116478757655138 0.5766184205708658749855999
1.235271945572145035896483 -0.03351561019472693719878365 0.5801716344314737927589931
1.21837622566822911807094 -0.03360916294643784968387834 0.5757716587775439931462529
1.21837622566822911807094 0.03360916294643785662277224 0.5757716587775439931462529
1.226800697432259168451196 0.01712477314116480145433918 0.5766184205708658749855999
1.235271945572144813851878 0.03351561019472694413767755 0.5801716344314737927589931
1.225044362054841018405682 -0.0002758296131045113921270717 0.5746798083320542316343449
1.224815308817591930079516 0.0001822768613936152784851807 0.5746330319561987476362219
1.216390837053562101743864 -0.001875800448037228795178377 0.5737862701628768657968749
1.208195418526781139689774 0.01506669583173395922381932 0.5729862847454105789779533
1.208195418526780917645169 -0.01881829672780841594681434 0.5729862847454104679556508
1.272605093447711332999006 -0.02477997937998493993561056 0.597385072827696150810084
1.265224937482311240444233 0.003323499608740748071517013 0.5947701456553923238246284
1.272605093447711110954401 0.03142697859746643174183589 0.597385072827696150810084
1.26261001031000752448108 -0.04477014565539234880464647 0.5924670385484185342050978
1.262610010310007302436475 0.04477014565539236268243428 0.5924670385484185342050978
1.252614927172303715963153 0.03493407709683696293900823 0.5875490042691409176001116
1.255229854344607431926306 0.006830598108111275365561532 0.5898521113761147072196422
1.252614927172303715963153 -0.02127288088061441220788517 0.5875490042691408065778091
0.947310438415221001129396 0.03073489150310512729724621 0.6334244530878843093546493
0.9446208768304417136008055 -0.0166666666666666664353702 0.6376778841667734010201229
0.947310438415221001129396 -0.002598441830228202971408979 0.6334244530878843093546493
0.9378956488157946802530773 0.003216210637372814845624802 0.6446208768304416691918846
0.9338599823859269344339396 -0.02473799952640216154309272 0.6473104384152208456981725
0.9338599823859269344339396 0.03117042080114779470378927 0.6473104384152208456981725
0.9429529415267602354688847 -0.04462087683044164282408772 0.6360099488630919228882021
0.936227713512113313143459 -0.04462087683044164282408772 0.6429529415267603020822662
0.936227713512113313143459 0.04462087683044164282408772 0.6429529415267601910599637
0.9429529415267602354688847 0.04462087683044164976298163 0.6360099488630919228882021
0.9724477053756365174663756 -0.04220739042346059038957051 0.609726532645440633118028
0.95972653264544072193587 -0.04220739042346058345067661 0.6194502066484389724010384
0.9597265326454406109135675 0.04220739042346059038957051 0.6194502066484389724010384
0.9724477053756365174663756 0.04220739042346059038957051 0.609726532645440633118028
0.9793386502486615130536052 -0.01676504496306883279510558 0.6038963047882697221524495
0.9705137823067353508577071 0.008775678793725091159094731 0.6077926095765394665093595
0.9793386502486615130536052 0.03431640255051901511329504 0.6038963047882697221524495
0.9577926095765395553272015 0.002780681339330153076933039 0.6175162835795378057923699
0.9538963047882698109702915 0.028321405096124074862729 0.6233436527942665117407728
0.9538963047882698109702915 -0.02276004241746376610677771 0.6233436527942665117407728
1.296723884182193753389356 -0.009853668938951235661827255 0.6066826146816639564463003
1.298361942091096787876836 0.02020354857657591027275679 0.6084510556366186095900161
1.298361942091096787876836 -0.03991088645447839200475215 0.6084510556366184985677137
1.291690358562133988939991 -0.0467238841821938227782951 0.6050445567727608109365178
1.291690358562133766895386 0.0467238841821938158394012 0.6050445567727609219588203
1.290052300653230732407906 -0.01666666666666666296592325 0.6032761158178062688151044
1.28501877503317096795854 4.738379093455433876827879e-05 0.601638057908903123305322
1.285018775033170745913935 0.03338071712426789183769671 0.601638057908903123305322
1.335380686034119968041978 0.008306845911376448468588229 0.6271060702549016152573813
1.342690343017060250474515 0.02702086527882965882874089 0.6322831695609831825777292
1.342690343017060250474515 -0.01040717345607674627905315 0.6322831695609831825777292
1.32230811314728224914461 -0.02439203089857352318992056 0.6202607604464955848300178
1.333480452246175618213897 -0.03538068603411986812190548 0.6272531891677439741528133
1.312951103463555480033165 -0.03901134486445365784357264 0.6163576023274132120732816
1.312951103463555480033165 0.03901134486445366478246655 0.616357602327413323095584
1.32230811314728224914461 0.02439203089857352318992056 0.6202607604464955848300178
1.333480452246175618213897 0.03538068603411986812190548 0.6272531891677440851751157
1.324208346935226376928085 -0.005678011531120326707555712 0.6201136415336532259345859
1.32034566481927306824673 0.002047352700786531781718125 0.6182983121184864039321383
1.310988655135546299135285 -0.009853668938951237396550731 0.614395153999404031175402
1.305494327567773060749801 0.01249100925883575227692823 0.6123073252954887024657182
1.305494327567772838705196 -0.0321983471367382340089236 0.6123073252954884804211133
1.364057185854806286684493 -0.03404970863346166304319595 0.6481068944882676374774633
1.359868251195001764841663 -0.00450258632359309008547088 0.646213788976535252750466
1.364057185854806286684493 0.02504453598627548460697767 0.6481068944882676374774633
1.357975145683269602159271 -0.04621378897653523332156311 0.6439269841106225467086688
1.357975145683269602159271 0.04621378897653524719935092 0.6439269841106225467086688
1.351893105511732695589444 0.03785396822124503790618633 0.6397470737329773449175718
1.353786211023465080316441 0.008306845911376457142205609 0.6420338785988901619816716
1.351893105511732473544839 -0.0212402763984921166828812 0.6397470737329774559398743
0.8978549579138924707777392 0.0341680311061404312633627 0.6863130731922477689721518
0.8957099158277852524179252 -0.0166666666666666594964763 0.6899389734669628682084408
0.8978549579138924707777392 0.0008346977728070983926222937 0.6863130731922477689721518
0.8905651662611144825376641 0.006377167533325282799960831 0.6957099158277851858045437
0.8875654587805510420395194 -0.02266608162779333926484249 0.6978549579138926262089626
0.8875654587805510420395194 0.0354204166944439083342111 0.6978549579138926262089626
0.8942796884870682916357509 -0.04570991582778528156127962 0.6885087461262457964039641
0.8891349389203974107331874 -0.04570991582778528156127962 0.694279688487068114000067
0.8891349389203974107331874 0.04570991582778530237796133 0.6942796884870682250223695
0.894279688487068069591146 0.04570991582778528850017352 0.6885087461262457964039641
0.920066697743343930859794 -0.04172724563471850306450861 0.6601252590913242457304477
0.9101252590913242457304477 -0.04172724563471850306450861 0.6710209833971685355891168
0.9101252590913242457304477 0.04172724563471852388119032 0.6710209833971685355891168
0.920066697743343930859794 0.04172724563471852388119032 0.6601252590913242457304477
0.9240192544866802082381696 -0.02184436833067902872240751 0.6541363771826408379794771
0.9182141930173012278615374 0.003216210637372826121327396 0.6582727543652815427321912
0.9240192544866802082381696 0.02827678960542467229144492 0.6541363771826407269571746
0.9082727543652813206875862 0.005124781945021813535368072 0.6691684786711258325908602
0.9041363771826406159348721 0.0301853609130736597054856 0.6759278257943291956522103
0.9041363771826406159348721 -0.01993579702303004130836683 0.6759278257943291956522103
1.393509275144239056842821 -0.002374476322593681298922519 0.6636368200277977802414853
1.396754637572119595034792 0.02446813215497842253220995 0.6675375527719538126802945
1.396754637572119595034792 -0.02921708480016578513005499 0.6675375527719538126802945
1.386170011076989894149847 -0.04350927514423875985816181 0.6603914575999172420495142
1.386170011076989894149847 0.04350927514423877373594962 0.6603914575999172420495142
1.382924648649109133913271 -0.0166666666666666664353702 0.6564907248557613206330075
1.375585384581859971220297 -0.01099331117935432866605794 0.653245362427880671418734
1.375585384581859971220297 0.02234002215397900420468247 0.653245362427880671418734
1.432506996529139264850983 -0.01272775056831437941184948 0.6952347470974538090615624
1.423401377618389140877753 0.01107507695992626314818175 0.6904694941949074404874409
1.432506996529139264850983 0.03487790448816689703459559 0.6952347470974538090615624
1.418636124715842772303631 -0.04046949419490730726067795 0.6857141756028237722375707
1.418636124715842772303631 0.04046949419490731419957186 0.6857141756028235501929657
1.404765252902546501800884 0.02142835120564696299583218 0.6761936041081934023466715
1.409530505805092648330401 -0.002374476322593674360028615 0.6809489227002774036634491
1.404765252902546501800884 -0.02617730385083431865478332 0.676193604108193513368974
0.8521359663956520336114409 -0.04707279151639463116163498 0.7492087579120465523629946
0.8522548463297560106255446 -0.01532194235896793682583095 0.7484175158240933267705941
0.8521359663956520336114409 0.01642890679845876444886699 0.7492087579120465523629946
0.8740686972302382784505426 -0.03915451477981971017960916 0.7125467801302423076492687
0.8633380222181955554461297 -0.03757203060391307858356669 0.7284222047089556895116402
0.8585876417619547895654364 -0.04841751582409335730172728 0.7396661287655321714851198
0.8633380222181955554461297 0.03757203060391309246135449 0.7284222047089556895116402
0.8585876417619549005877388 0.04841751582409337811840899 0.7396661287655321714851198
0.8740686972302382784505426 0.03915451477981972405739697 0.7125467801302423076492687
0.8784665768100820004704588 -0.01611068057982777482206593 0.7054227426100900810723715
0.8723674023201761773549379 0.006377167533325272391619976 0.710845485220180206553664
0.8784665768100820004704588 0.02886501564647833001364674 0.7054227426100900810723715
0.8616367273081335653728274 0.01508418249076002790043383 0.7267209097988935884160355
0.8570052267859967765062379 -0.00582118144648638771720961 0.7371735917675167337748121
1.448140954088530385490685 -0.01248880813995174171582292 0.7039479751748271008082725
1.449070477044264837473975 0.01898547928191207656567485 0.7051073814824497798525726
1.449070477044265281563185 -0.04396309556181555999732069 0.7051073814824496688302702
1.446274682190894944611159 -0.04814095408853048124742102 0.7030184522190922047357731
1.446274682190894944611159 0.04814095408853050206410273 0.7030184522190923157580755
1.44534515923516004853866 -0.01666666666666666296592325 0.7018590459114696367137753
1.443478887337524607659134 0.009216031048456745089492159 0.7009295229557348516635784
1.443478887337524607659134 0.04254936438179008489912647 0.7009295229557348516635784
1.485381548248458027927654 0.009624098972211614366756294 0.7277638345709809275518865
1.492690774124229236008432 0.02833898055400309659579428 0.7335999915146491634487802
1.492690774124229236008432 -0.009090782609579878270622544 0.7335999915146491634487802
1.469821257043053552848733 -0.02664322842922868528336977 0.7177730421279286954217014
1.482118763800105654127037 -0.03538154824845814866440818 0.7265492650377531891336957
1.460463816252157709385529 -0.04126168018077053245562524 0.7125527455155152845023281
1.460463816252157709385529 0.04126168018077056021120086 0.7125527455155152845023281
1.469821257043053552848733 0.02664322842922871997783929 0.7177730421279286954217014
1.482118763800105654127037 0.03538154824845815560330209 0.7265492650377530781113933
1.473084041491406148693954 -0.007928346847437190911267457 0.718987611661156655884497
1.468095760610125255496428 0.002048214915124851355499036 0.7160475456950003980693964
1.458738319819229412033224 -0.01248880813995172436858816 0.7108272490825868761277206
1.454369159909614683812151 0.01210620537415214512111383 0.708547018436329723023448
1.454369159909614683812151 -0.03708382165405561814441882 0.7085470184363296120011455
1.510566697853260809125686 -0.03789784800388881769173111 0.7484645458571497211863743
1.507586530140905489716374 -0.007635422956255723259122448 0.7469290917142995533950511
1.510566697853260809125686 0.02262700209137736423459231 0.7484645458571497211863743
1.506051075998055432947353 -0.04692909171429975045963801 0.7449432620099223356646689
1.506051075998055432947353 0.04692909171429976433742581 0.7449432620099223356646689
1.501535454142850056769021 0.03988652401984470186047105 0.7414219781626947280983586
1.503070908285700113538041 0.009624098972211609162585866 0.7434078078670722788956482
1.501535454142850056769021 -0.02063832607542148700474627 0.7414219781626948391206611
0.8470339992536196627170852 0.01527255076390334614933053 0.768238551510283862455708
0.8440679985072391255940261 -0.01666666666666664908813544 0.7796702746355711477477257
0.8470339992536196627170852 -0.01806078256942999366030378 0.768238551510283862455708
0.840227820089517907220511 0.008986309831224139482719337 0.7940679985072391922074075
0.8393536424181771149477527 -0.01841502200934835159484848 0.7970339992536195072858618
0.8393536424181770039254502 0.03638764167179661668249935 0.7970339992536195072858618
0.8436617888206280335694487 -0.04406799850723914363515021 0.7792640649489600557231483
0.8398216104029068151959336 -0.04406799850723914363515021 0.7936617888206278781382252
0.8398216104029068151959336 0.04406799850723916445183193 0.7936617888206282112051326
0.8436617888206280335694487 0.04406799850723917139072583 0.7792640649489601667454508
0.8515780966335985135984288 -0.04934907966107870969096894 0.7509057344797490651799876
0.8509057344797491539978296 -0.04934907966107870969096894 0.7531746772747478502196827
0.8509057344797491539978296 0.04934907966107870969096894 0.7531746772747478502196827
0.8515780966335985135984288 0.04934907966107870969096894 0.7509057344797490651799876
0.8516701844771593643557139 -0.04800435535337996967308882 0.7503254601694605563366736
0.8513232824927705610917883 -0.01532194235896793335638399 0.750650920338921334717952
0.8516701844771594753780164 0.01736047063544410296032083 0.7503254601694605563366736
0.850650920338921423535794 -0.01212878107666914839768424 0.7529198631339200087353447
0.850325460169460756176818 0.02055363191774289138846754 0.7548633457594580153937613
0.850325460169460756176818 -0.04481119407108119512272992 0.7548633457594580153937613
1.541615467600572886297527 0.001571604344611232662032307 0.7675036679050659671474932
1.545807733800286243308619 0.02652040527851757048538595 0.7724305372109914191725011
1.545807733800286243308619 -0.02337719658929510863076828 0.7724305372109914191725011
1.53365668898882501203218 -0.04161546760057299731982994 0.7633114017053523880917965
1.53365668898882501203218 0.04161546760057301119761775 0.7633114017053523880917965
1.529464422789111655021088 -0.01666666666666665602702935 0.7583845323994268250444861
1.521505644177363780755741 -0.01601995535568271136761531 0.7541922661997133570110918
1.521505644177363780755741 0.01731337797765061456423119 0.7541922661997133570110918
1.572690689573464029038519 -0.02396348393702767837210033 0.7966541735104915034071382
1.566364084520994959248696 0.002678196417288372134513086 0.793308347020982851383053
1.572690689573464029038519 0.02931987677160442090640302 0.7966541735104915034071382
1.563018258031485974157704 -0.04330834702098271260517492 0.7891066423494637049884659
1.563018258031485974157704 0.04330834702098271954406883 0.7891066423494637049884659
1.553345826489508585410704 0.02821328469892727536239008 0.7815591111884359065697936
1.556691652979017348457091 0.001571604344611226807340576 0.7857608158599550529643807
1.553345826489508585410704 -0.02507007600970482044666632 0.7815591111884359065697936
0.8436557530167823060196497 0.01563992925752642065839737 0.821984176240743935615285
0.8460578234515360174228249 -0.01083578838801904989375124 0.8352220350635166656871888
0.848457318193471587974841 0.01563477787189030895897979 0.8489732625908597007935441
0.8484547425006536691682868 -0.01667181805230276078755303 0.849486631295429894805693
0.8484547425006536691682868 0.04794137379608338217495955 0.849486631295429894805693
0.8459838873106761969467016 -0.04314238431221212310973101 0.8351480989226570672556704
0.8426570775975252836076379 -0.0441691217213523862339386 0.8189948009605606538130473
0.8483833820526119895433226 -0.04897326259085972577356216 0.8488993264499999913397232
0.848383382052612100565625 0.04897326259085974659024387 0.8488993264499999913397232
0.8427310137383848820391563 0.04314238431221213698751882 0.8190687371014202522445657
0.8450591480322788839885106 0.04897326259085973965134997 0.8322326597833333838849512
0.8403289433036311706359811 -0.0166666666666666525575824 0.8058308782786475221726619
0.8394042040252337466554877 0.003155431552576525109504724 0.8029154391393238388019427
0.8394042040252337466554877 0.03648876488590985928128774 0.8029154391393238388019427
1.595246976317444609350105 -0.005543595534068302722874311 0.8103145592488548709653173
1.597623488158722127039368 0.02303671411670941276961244 0.8134995829738762562755028
1.597623488158722127039368 -0.03412390518484600954174368 0.8134995829738761452532003
1.590629253034033130376201 -0.04524697631744438452994217 0.8079380474075770202091462
1.590629253034033130376201 0.04524697631744437759104827 0.8079380474075771312314487
1.588252741192755390642333 -0.01666666666666667684371106 0.8047530236825555238766583
1.583635017909344355757639 -0.002074827265267258254166638 0.8023765118412777841427896
1.583635017909344355757639 0.03125850606806607895338246 0.8023765118412777841427896
1.634532658929316095708373 -0.009928620800522910960772549 0.8444612797298391981826171
1.625574409869899428215945 0.01232727199248872043679803 0.8389225594596783075473923
1.634532658929316095708373 0.03458316478550035877326252 0.8444612797298391981826171
1.620035689599738315536115 -0.03892255945967829783294079 0.8333561486294716047495967
1.620035689599738315536115 0.03892255945967830477183469 0.8333561486294717157718992
1.605538720270160979453067 0.01671229725894334341984582 0.8222510175291042333611813
1.611077440540321648043687 -0.005543595534068289712448241 0.8278174283593108251366743
1.605538720270160979453067 -0.0277994883270799228447423 0.8222510175291042333611813
0.8494672185779144069073254 -0.01487696769394075170522829 0.851427630908448418445289
0.8497336092889572478625837 0.0179235842173069842564459 0.8520560896837686692961711
0.8497336092889572478625837 -0.04767751960518848419745552 0.8520560896837686692961711
0.8492176648915690240215781 -0.04946721857791439025398006 0.8511612401974055774900307
0.8492176648915690240215781 0.04946721857791440413176787 0.8511612401974055774900307
0.8489512741805262940886223 -0.0166666666666666594964763 0.8505327814220855486837536
0.848701720494180911202875 0.01510199644980470858046662 0.8502663907110427077284953
0.848701720494180911202875 0.04843532978313803971648355 0.8502663907110428187507978
0.8715483943782718068149507 -0.02437962803265499370231062 0.8959280224109266166365728
0.8668821635727457231013204 0.0008097501225319974921951216 0.8918560448218535441355925
0.8715483943782718068149507 0.02599912827771898651829652 0.8959280224109266166365728
0.8628101859836725395780377 -0.04185604482185363572899206 0.8801562052306231009879411
0.8628101859836725395780377 0.04185604482185365654567377 0.8801562052306231009879411
0.8540719775890732723411247 0.01031241046124623840507528 0.8643843880503192522724021
0.8581439551781464558644075 -0.01487696769394074650105786 0.8760842276415498064423559
0.8540719775890731613188223 -0.04006634584912772967246752 0.8643843880503192522724021
1.648472268525107420344966 -0.01287285203456015048040229 0.8534246387909458775311577
1.649236134262553665763562 0.01893274982388056318360903 0.8545576803695527079440808
1.649236134262553665763562 -0.04467845389300086067496665 0.8545576803695527079440808
1.647066436925464616436443 -0.04847226852510737316048761 0.8526607730534996321125618
1.647066436925464838481048 0.04847226852510739397716932 0.8526607730534996321125618
1.646302571188018371017847 -0.01666666666666665602702935 0.8515277314748926906773363
1.644896739588375789153929 0.01079954051759610469951589 0.8507638657374464452587404
1.644896739588375789153929 0.04413287385092944103970325 0.8507638657374464452587404
1.676839214124676846751072 0.002408338781484090865975256 0.8755691246568066965494381
1.677725861148451347304444 -0.0006350447339350430301166406 0.8770908164145163610214695
1.682477250252296219201753 0.01013782294162491118272307 0.8857416721148172467081849
1.686341992332366590545689 -0.008937182506525840480771095 0.8928708360574085789451715
1.686341992332366590545689 0.02921282838977566631566418 0.8928708360574085789451715
1.674499885733231607787275 -0.007086995564374842446198066 0.8738648409992963994596948
1.665849030032930722100559 -0.02311861749710646118938229 0.8677459373489839755677622
1.67293974752822105500627 -0.03574167211481741462941741 0.8781010767067951583442209
1.665849030032930722100559 0.02311861749710647853661705 0.8677459373489839755677622
1.67293974752822105500627 0.03574167211481742156831132 0.8781010767067952693665234
1.674499885733231607787275 0.00708699556437485805870935 0.8738648409992963994596948
1.673613238709457107233902 -0.004043612048955707791164649 0.8723431492415867349876635
1.6712739103180116462255 0.0006350447339350591847290106 0.8706388655840765489202226
1.662623054617711204627994 -0.01287285203456014527623186 0.8645199619337640140059875
1.656311527308855335860471 0.007837426681062235889196899 0.8601053419409618872037981
1.656311527308855779949681 -0.03358313075018252991110757 0.8601053419409618872037981
0.8925514344111645792523291 0.002575349861400164953872949 0.9170695738528685803103713
0.8962757172055823007283948 0.02846011760589817543576352 0.9229662993224844180772948
0.8962757172055823007283948 -0.02330941788309785073218805 0.9229662993224844180772948
0.8883472589335150715328382 -0.04255143441116467084572861 0.913345291058450969856608
0.8883472589335150715328382 0.04255143441116469166241032 0.913345291058450969856608
0.8846229761390973500567725 -0.0166666666666666594964763 0.9074485655888351320896845
0.8804188006614476202926767 -0.006638815466303330317665576 0.9037242827944176326582237
0.8804188006614476202926767 0.02669451786703000428779831 0.9037242827944176326582237
0.9149395037268597263846459 -0.03250253188822172650818132 0.9474420356150812239093284
0.9113066984408075832391205 -0.004285127324725322706111541 0.9448840712301628252944852
0.9149395037268597263846459 0.02393227723877109150429909 0.9474420356150813349316309
0.9087487340558891846242773 -0.04488407123016308064578084 0.9403963772124479536529407
0.9087487340558891846242773 0.04488407123016308064578084 0.9403963772124481756975456
0.9025579643849184208193037 0.03079275442489657135802794 0.9333507188098149054411579
0.9051159287698369304564494 0.002575349861400157147617307 0.9378384128275296660603999
0.9025579643849184208193037 -0.02564205470209625706279333 0.9333507188098147944188554
1.69657014726224386613751 0.01563170006346809720598756 0.9190615528012238133470646
1.69750884867872287031787 -0.01375429723050993618960192 0.9337545514482129549449496
1.697985407047902572941211 0.0147074139688693362321148 0.948965033396801271869947
1.697523264000603271384193 -0.01759095276126542567451949 0.9494825166984006692416642
1.697523264000603271384193 0.04700578069900408773040823 0.9494825166984004471970593
1.696846794575261885285045 -0.04605266396064469636151273 0.9330924973447523029790318
1.694099856014340321763711 -0.04708763056384326906034232 0.9169433139796848708513721
1.697323352944441809952991 -0.04896503339680143007672797 0.9483029792933406199040292
1.697323352944441809952991 0.04896503339680143007672797 0.9483029792933403978594242
1.694761910117801306796537 0.04605266396064470330040663 0.9176053680831455228172899
1.695038557430819547988676 0.04896503339680143007672797 0.9316363126266737904046522
1.693823208701322302616177 -0.0166666666666666594964763 0.9029123694361564922417074
1.692014971556879743275204 0.007225453505468185273763471 0.9014561847180782017119327