# geometry NO_DATA 504
#  x  y  z
0.9948988330175684291489802 0.0369934300972782764693747 0.6920945970797096613580379
0.9897976660351368582979603 -0.01666666666666653806583298 0.6883955480662075077091799
0.9948988330175684291489802 0.003660096763944938828144737 0.6920945970797096613580379
0.9882899564524973978763001 0.01365124750138803355614669 0.6897976660351369249113418
0.9918834138522896193279621 -0.009479751867082313737666865 0.6948988330175682737177567
0.991883413852289841372567 0.03678224686985824554152913 0.6948988330175682737177567
0.9945838748982207544457879 -0.03979766603513688189019959 0.6931817569292914038570075
0.9930761653155812940241276 -0.03979766603513688189019959 0.6945838748982208210591693
0.9930761653155812940241276 0.03979766603513701372918376 0.6945838748982207100368669
0.9945838748982207544457879 0.03979766603513702066807767 0.6931817569292914038570075
1.040612867448424516680916 0.001817598291438268180014726 0.6686292650306278062544152
1.045306433724212169522616 0.02576379907319603992932322 0.6731778312338922987123624
1.045306433724212169522616 -0.02212860249031964321453358 0.6731778312338925207569673
1.033894252342309805214882 -0.0259566128470876990308458 0.6766147182272188587148776
1.043232791708307960476532 -0.04061286744842444035308304 0.6785287234056029959106127
1.02192115195143085060181 -0.03534374539866326492276727 0.6871857006491683961257877
1.02192115195143085060181 0.03534374539866325798387336 0.6871857006491683961257877
1.033894252342309805214882 0.02595661284708783433927692 0.6766147182272186366702726
1.043232791708307960476532 0.04061286744842457913096112 0.6785287234056026628437053
1.031274328082426139374661 -0.002010412065329789804701832 0.6667152598522437800809826
1.026629354992215858999316 0.007279534115091233249794644 0.6693498208771242463654971
1.014656254601336904386244 0.01386243072880791529777333 0.6799208032990737837764073
1.007328127300668452193122 0.0325395094608045137851704 0.6878572246961427438805003
1.007328127300668452193122 -0.004814648003188670179197661 0.6878572246961427438805003
1.094371013888038035588579 -0.005522870075483258568704859 0.6612008844075537572493317
1.097185506944019062203211 0.02218147714588814684022466 0.6639582896471645234726111
1.097185506944019062203211 -0.03322721729685457897618406 0.6639582896471645234726111
1.077716394742758820868289 -0.0350860745411561703033243 0.666678714188054355460622
1.089740591735984809318438 -0.04437101388803807444638494 0.6676081428102051962270025
1.063864221132073240028149 -0.04071506065311809863249692 0.6731063536111259182348476
1.063864221132072795938939 0.04071506065311825822705671 0.6731063536111254741456378
1.077716394742758598823684 0.03508607454115624663115725 0.6666787141880542444383195
1.089740591735984587273833 0.044371013888037998118552 0.6676081428102050852047
1.08234681689481204713843 -0.007381727319784853365292054 0.6602714557854029164829512
1.073137112957567085302912 0.01103768055470480749513662 0.6620994324028628419398501
1.059284939346881504462772 0.001817598291438282057802533 0.6685270718259342936917733
1.054642469673440441368939 0.02586599227788971902541881 0.6731267346315454869198902
1.054642469673440663413544 -0.02223079569501331190228832 0.6731267346315458199867976
1.143479063112374571886676 -0.00374601884905289422844632 0.6629812607964322701548099
1.146739531556187241534417 0.02306637759665494669114594 0.6661811162614263981396334
1.146739531556187241534417 -0.03055841529476073514803858 0.6661811162614263981396334
1.121818041584226932627644 -0.03783319436746265806981171 0.6616723118051857088772749
1.135661773878437585949541 -0.04347906311237451082440941 0.6653097013415365523769651
1.108411843361372994820613 -0.04435413125508815002095986 0.6639837416569647210451421
1.108411843361372994820613 0.04435413125508808757091472 0.6639837416569648320674446
1.121818041584227154672249 0.03783319436746258868087267 0.6616723118051858198995774
1.135661773878437807994146 0.04347906311237451082440941 0.6653097013415366633992676
1.129635330818163918564778 -0.01102079792175481888494293 0.6593438712600813156328172
1.119052066967765934890622 0.01014572977904109989111259 0.6589063371887246001179506
1.105645868744911997083591 -0.005522870075483251629810955 0.6612177670405035012635153
1.102822934372456042950716 0.02216459451293824323148129 0.6639667309636394509908541
1.102822934372455820906112 -0.03321033466390466842854678 0.6639667309636394509908541
1.190422116306183664136142 0.0024504279363836258334719 0.6691364309953411471099116
1.195211058153091920885913 0.02620587757590091618209449 0.6739060364499582789221677
1.195211058153091698841308 -0.02130502170313365931098026 0.6739060364499582789221677
1.171724651098749347966077 -0.03384491007278315338746566 0.6646358681258985878770318
1.18510271464871541624575 -0.04042211630618394724301368 0.6709058123107232152193546
1.159846926278990553171866 -0.04342279376659920198111564 0.6663072501877974618267331
1.159846926278990553171866 0.04342279376659920198111564 0.6663072501877974618267331
1.171724651098749347966077 0.03384491007278315338746566 0.6646358681258985878770318
1.18510271464871541624575 0.04042211630618395418190758 0.6709058123107232152193546
1.177044052756217595856469 -0.01008946043326587084509871 0.6628664868105162977229838
1.168454931053159562281962 0.007088782972850616106996746 0.6613661480803086911706146
1.156577206233400767487751 -0.00374601884905289856525501 0.6630375301422075651203158
1.153288603116700450357257 0.02301010825087964131729912 0.6662092509343140456223864
1.153288603116700450357257 -0.03050214594898543324363871 0.6662092509343140456223864
1.236158719545893180935536 0.01137354490294134948258353 0.6778613862389104571803955
1.243079359772946368423163 0.03086559778216813737516944 0.6849608517966611076488448
1.243079359772946590467768 -0.008118507976285426266938039 0.6849608517966612186711473
1.224967262430787684479583 -0.02621876251826283504842152 0.6721418762182278516803535
1.236663950583639204339192 -0.03615871954589345432795611 0.6811920034892164910189649
1.215221235991174264512438 -0.04006004297236938349602298 0.674779783292699719687846
1.215221235991174708601648 0.04006004297236938349602298 0.674779783292699719687846
1.224967262430787906524188 0.02621876251826282810952762 0.6721418762182278516803535
1.236663950583638982294588 0.0361587195458934473890622 0.6811920034892164910189649
1.224462031393041883120532 -0.006726709639036057564176474 0.6688112589679218178417841
1.219685983467243772793154 0.002825386212560104977342679 0.666860597254683828971622
1.209939957027630352826009 0.002450427936383618894577996 0.6694985043291556969791145
1.204969978513815265230846 0.02584380424208633855731598 0.6740870731168655538567691
1.204969978513815043186241 -0.02094294836931909209454261 0.6740870731168655538567691
1.279613284841398135327495 0.008478773325520610679162381 0.6788654884841220926716687
1.283665722414839560627797 -0.0003738981786382394043380395 0.6832918242362016059132657
1.286851160203048793917446 0.006744773755056797381879363 0.6918121066588538425889965
1.285984160417816823951398 -0.01840066623713049187571755 0.6959060533294270101123402
1.285984160417816823951398 0.03189021374724410051726409 0.6959060533294270101123402
1.278788790593437640907837 -0.01012776182144179727695477 0.6784148924147996861933052
1.270268508170785182187501 -0.02642053030947022831953497 0.6842886139555894864372476
1.274278440206955131941413 -0.04181210665885395916241407 0.693259492447564129591342
1.270268508170785182187501 0.02642053030947021791119411 0.6842886139555894864372476
1.274278440206954909896808 0.04181210665885396610130798 0.693259492447564129591342
1.278788790593437640907837 0.0101277618214417729908261 0.6784148924147995751710027
1.274736353019996437652139 -0.001275090317282947085034128 0.6739885566627203949963132
1.273911858772035721187876 0.0003738981786382150097891586 0.6735379605933978774956472
1.265391576349383484512146 0.01137354490294134774786006 0.6794116821341875667172872
1.257695788174691742256073 0.02931530188689095497989179 0.6857359997442996624172906
1.257695788174691742256073 -0.00656821208100824387166039 0.6857359997442997734395931
0.9481460944931472401009387 0.0444807724749319982615603 0.7463346779817845444426894
0.9462921889862947466554033 -0.01666666666666666296592325 0.7453864807306134210307391
0.9481460944931472401009387 0.01114743914159866712554336 0.7463346779817845444426894
0.945756437228309154718886 0.0155951631506954877665061 0.7462921889862947910643243
0.9470745909771760562279042 -0.01403035916893277841588361 0.7481460944931473955321621
0.9470745909771760562279042 0.04522068547032376262251319 0.7481460944931473955321621
0.9479802115879731871928016 -0.04629218898629492567886601 0.7470745033322918615681374
0.9474444598299875952562843 -0.04629218898629492567886601 0.7479802115879732316017225
0.9474444598299875952562843 0.04629218898629494649554772 0.7479802115879732316017225
0.9479802115879731871928016 0.04629218898629494649554772 0.7470745033322918615681374
0.986782406950274859624983 -0.03557002571738060447970042 0.7216234498662477125918713
0.9716234498662476015695688 -0.03557002571738060447970042 0.7373844082772329500130581
0.9716234498662476015695688 0.03557002571738061835748823 0.7373844082772329500130581
0.986782406950275081669588 0.03557002571738061835748823 0.7216234498662476015695688
0.9875329013093641083997909 -0.005252111549326044133423341 0.7072149871413095922889624
0.9795889313666465980645626 0.0136512475013879103907799 0.7144299742826192289868459
0.9875329013093641083997909 0.0325546065521018501698336 0.7072149871413095922889624
0.9644299742826191179645434 0.01485525015530373901806449 0.7301909326936044664080327
0.9572149871413093702443575 0.03375860920601768400128861 0.7387369039632800671313362
0.9572149871413095922889624 -0.004048108895410210301968323 0.7387369039632800671313362
1.295743342320045066173861 -0.00798456639186102302974124 0.7085977078173574250641309
1.297871671160022444269089 0.02109210926151766640757046 0.7108104291147828712738033
1.297871671160022444269089 -0.03706124204523971593649989 0.7108104291147828712738033
1.292910724704217528824302 -0.04574334232004535760740538 0.7064693789773800469689036
1.292910724704217528824302 0.04574334232004537148519319 0.7064693789773800469689036
1.290782395864240150729074 -0.01666666666666666296592325 0.7042566576799546007592312
1.287949778248412613379514 0.002488116075102159152621084 0.7021283288399773336863063
1.287949778248412613379514 0.03582144940843549896225539 0.7021283288399773336863063
1.335541297253422854396376 0.01337383102239918589160261 0.7294789515911099808675999
1.342770648626711693651714 0.03224846160915531556589997 0.7372698490623543765565273
1.342770648626711471607109 -0.00550079956435694031324779 0.7372698490623543765565273
1.317630107869547373411478 -0.03087292021108916165172964 0.7154221439494576895157252
1.331962586015047245169285 -0.03554129725342279610966756 0.7281082042728238556961173
1.308192792576169161122834 -0.04533162295766635790927879 0.7125338427135720076321945
1.308192792576169161122834 0.04533162295766636484817269 0.7125338427135720076321945
1.317630107869547151366874 0.03087292021108915818228269 0.7154221439494575784934227
1.331962586015047245169285 0.03554129725342279610966756 0.7281082042728237446738149
1.321208819107922760593965 -0.01199828962433302677326186 0.7167928912677439257095102
1.314105692335711506046891 0.002207963920089463238927152 0.7118977284156221552180455
1.304668377042333515802852 -0.007984566391861028233911668 0.7090094271797364733345148
1.302334188521166780105887 0.02068038989913866670944387 0.7110162887959724509201465
1.302334188521166780105887 -0.0366495226828607162383733 0.7110162887959724509201465
1.363385997275315730803413 -0.03116262433284322508342257 0.7445486216081587116377705
1.364870066225419842353972 -0.00873204778319233015926315 0.7390972432163174232755409
1.363385997275315730803413 0.01369852876645855956072584 0.7445486216081587116377705
1.359418687833578776036347 -0.03909724321631755095118876 0.7429022037860250060603562
1.359418687833578776036347 0.03909724321631755789008267 0.7429022037860250060603562
1.355451378391841377180072 0.03580440757205008428520898 0.7412557859638913004829419
1.360902756783682665542301 0.01337383102239918936104957 0.7374508253941837176981267
1.355451378391841377180072 -0.0090567455272517020936629 0.7412557859638911894606395
0.9354066026351326446075518 -0.007407971626404901213658327 0.7928145742615377855599945
0.9284814399252596661682446 0.01155451023000384630501358 0.7856291485230754156887656
0.9354066026351326446075518 0.0305169920864125643333864 0.7928145742615377855599945
0.9393963690500412022643673 -0.03440123640259096921001358 0.773265454141360164541652
0.930450879879822445595039 -0.02003038492566635783709295 0.7827466950695646241698
0.9367620865294530307920695 -0.03562914852307537405540216 0.7916139799375268015779739
0.930450879879822445595039 0.02003038492566642375658503 0.7827466950695646241698
0.9367620865294530307920695 0.03562914852307542262765949 0.7916139799375268015779739
0.9393963690500412022643673 0.03440123640259101084337701 0.7732654541413603865862569
0.9400612116160664832875682 -0.002139406585228821079669448 0.7577993817987045410689007
0.9317296785060898978159116 0.01559516315069551378735824 0.7655987635974090821378013
0.9400612116160664832875682 0.03332973288661982697034247 0.7577993817987045410689007
0.9227841893358711411465833 0.002295815189742111440962535 0.7750800045256133197213444
0.9221702332756287479043067 -0.001067903069257610101580602 0.7767618636551132382805918
1.388759024116598794762467 0.006449373934023625368205934 0.7727989961837462562499468
1.394379512058299575016918 0.02854173138395580192061551 0.7787365285423908378703572
1.394379512058299575016918 -0.01564298351590855812309755 0.7787365285423908378703572
1.381680154833370366418421 -0.03875902411659884472250326 0.7671785082420454759954964
1.381680154833369922329211 0.03875902411659885166139716 0.7671785082420456980401013
1.376059666891669586163971 -0.01666666666666665602702935 0.7612409758834011164196909
1.368980797608440713730715 -0.01997302366659348127342355 0.755620487941700447187543
1.368980797608440713730715 0.01336030966673984812786991 0.755620487941700447187543
1.431243575080152652390098 0.01115709803679289929823071 0.779913522956640070660228
1.436489611067671035016247 -0.0006650260617562867015983841 0.7858245850059147885602329
1.440376163404553544467035 0.00843813073552112866138053 0.7944904313701262044133955
1.439016679753917671291674 -0.01938563396793843360277343 0.7972452156850631244111582
1.439016679753917227202464 0.03626189543898068745608754 0.7972452156850631244111582
1.429020824195948335955109 -0.01560259980520163798634048 0.7783557981341920894990949
1.420354977831737031124248 -0.03160424041011201945483577 0.7819129981320820377277414
1.426464281052823412920816 -0.04449043137012623216897111 0.7921365693187414347420372
1.420354977831737031124248 0.03160424041011201945483577 0.7819129981320821487500439
1.426464281052823412920816 0.04449043137012623216897111 0.7921365693187417678089446
1.429020824195948335955109 0.01560259980520164492523438 0.7783557981341920894990949
1.42377478820842995332896 -0.003780475706652450251787911 0.7724447360849173715990901
1.421552037324225636893971 0.0006650260617562941825933742 0.7708870112624693904379569
1.41288619096001433206311 0.006449373934023621031397244 0.7744442112603594496889059
1.406443095480007343667239 0.02689651630734274725953448 0.779559136080697490100988
1.406443095480007343667239 -0.01399776843929550519673999 0.7795591360806973790786856
0.9396394039200151038215836 -0.002584723540626564924904685 0.8422241274606416805426079
0.9314835107690446758255121 0.01519686471399040589291829 0.8344482549212833832896763
0.9396394039200151038215836 0.03297845296860740793576383 0.8422241274606416805426079
0.9366974186839441829377506 -0.03539050910936636373804731 0.8225868302356087458093725
0.9303627027749670208578436 -0.01983876403065003291015245 0.8314776243629173890781203
0.9389897230199788502602587 -0.03444825492128365806987489 0.8408395455842672117086067
0.9303627027749670208578436 0.01983876403064998780734207 0.8314776243629173890781203
0.9389897230199789612825612 0.03444825492128364419208708 0.8408395455842672117086067
0.9366974186839442939600531 0.0353905091093663498602595 0.8225868302356090788762799
0.9355259223419871705829109 -0.007169332212695886559494785 0.8073047454453166071886017
0.9287200793389687181189629 0.01155451023000379252858583 0.8146094908906335030351897
0.9355259223419871705829109 0.03027835267270349850488032 0.8073047454453168292332066
0.9223853634299914450167535 0.001114921587950283565771059 0.8235002850179418132370301
0.9228564905240329574453995 -0.002057175776033064260733818 0.8250863336999334496368874
1.446224263198771620153593 -0.008924111191469484560823133 0.8076470145388269239461465
1.448112131599385898894639 0.02063348534063547817796191 0.8096304238758114113494457
1.448112131599385898894639 -0.03848170772357444036071428 0.8096304238758113003271433
1.44399786363381288367691 -0.0462242631987716257047083 0.8057591461382127562274036
1.44399786363381288367691 0.0462242631987716326436022 0.8057591461382128672497061
1.442109995233198604935865 -0.01666666666666666990481716 0.8037757368012284908687093
1.439883595668240090503787 0.004662393934292752457893005 0.8018878684006143231499664
1.439883595668240090503787 0.03799572726762609486961253 0.8018878684006143231499664
1.485050967666816656986839 0.01489184667789189911446535 0.830728289005462583460826
1.492525483833408106448815 0.03327614767804198958600637 0.8390330295111502190152919
1.492525483833408106448815 -0.003492454322258174009840914 0.8390330295111502190152919
1.468128849565465632309724 -0.03082743072366295536412828 0.8164112152319824566859552
1.482683747760555448280684 -0.03505096766681675690691122 0.8300787034326848612408867
1.458936699065390474316928 -0.04577646305684619776332767 0.8128079768029892182568119
1.458936699065390918406138 0.04577646305684619776332767 0.8128079768029895513237193
1.468128849565465632309724 0.03082743072366293107799962 0.8164112152319825677082576
1.482683747760555670325289 0.03505096766681674302912342 0.8300787034326849722631891
1.470496069471726841015879 -0.01244312972351288050509854 0.8170608008047601789058945
1.463415687443228918596105 0.001717634333483398448999546 0.8116980531097454099054289
1.454223536943153760603309 -0.008924111191469488030270085 0.8080948146807523935208906
1.452111768471576969119496 0.02018568519871004329768738 0.8098543239467741461368178
1.452111768471576969119496 -0.03803390758164901935822755 0.8098543239467739240922128
1.505821385276011392662099 -0.04190433082886915738818345 0.8477257161048807887482326
1.506322118480684313368556 -0.01311956528577437088023405 0.8454514322097614886786232
1.505821385276011392662099 0.01566520025732033583043545 0.8477257161048807887482326
1.504047834585565457388157 -0.04545143220976137488076319 0.8468383061104933773322045
1.504047834585565457388157 0.04545143220976145814749003 0.8468383061104933773322045
1.502274283895119300069609 0.04367661222098670470437298 0.8459508961161059659161765
1.504548567790238600139219 0.01489184667789199625898 0.8445640222153740772625952
1.502274283895119300069609 -0.01389291886520279198369288 0.8459508961161059659161765
0.9447389837466199091764452 -0.01350413968524180087504849 0.8568422797440923277534353
0.9473694918733099878949133 0.01456817739471131037398699 0.855793035108114552578229
0.9473694918733098768726109 -0.04157645676519511335200718 0.855793035108114552578229
0.946634590896971772622237 -0.04473898374661977594968221 0.8542117716174023600572696
0.9466345908969718836445395 0.04473898374661997717760542 0.8542117716174022490349671
0.9440040827702818049260713 -0.01666666666666646867689394 0.8552610162533801352324758
0.9458996899206335573495608 0.009935848460610408050541764 0.8526305081266898344694027
0.9458996899206337793941657 0.04326918179394374092128217 0.8526305081266898344694027
0.9850136777447899838477952 -0.008257306258392351633323969 0.8932709840031820558436948
0.9776003628676216417048295 0.01161799508130538678696286 0.8865419680063642005052316
0.9850136777447899838477952 0.0314932964210031252072497 0.8932709840031820558436948
0.9708713468708038973886687 -0.03654196800636439618203966 0.8781855808272276409098822
0.9708713468708038973886687 0.03654196800636441005982746 0.8781855808272276409098822
0.9567290159968178109295422 0.006371161654455746725655985 0.8631001776512732259760696
0.9634580319936354442234006 -0.01350413968524199342935432 0.8714565648304098965937214
0.9567290159968178109295422 -0.03337944102493973358436463 0.8631001776512734480206746
1.536848374766668801072456 0.01070327819913521362471531 0.8768365976662316763068361
1.543424187383334533762991 0.03088498629913766571619682 0.8839457574824671759472494
1.543424187383334533762991 -0.009478429900867264487618336 0.8839457574824671759472494
1.528531071407114083626766 -0.03684837476666912026157519 0.8702607850495663877055108
1.528531071407114083626766 0.0368483747666691480171508 0.8702607850495662766832083
1.521955258790448128891626 -0.01666666666666663867979459 0.863151625233330777042795
1.513637955430893189401331 -0.02627119051910530370119723 0.8565758126166654884414697
1.513637955430893189401331 0.007062142814228032638990129 0.8565758126166654884414697
1.57585723499873098241153 0.001491538656913784805652101 0.8756343036581830663322989
1.576547271492050983354716 -0.0001114656702737376673924621 0.8764358058217768254749558
1.573929393861762671136262 -0.005124289590302276431454942 0.8848248719902469527909261
1.570621479738154580019227 -0.02328249491388272029990247 0.8924124359951234319865421
1.570621479738154580019227 0.01303391573327814835503435 0.8924124359951234319865421
1.575477678709343409835242 -0.002250651235688804190776535 0.8753662130390692519554818
1.567088612540873171496969 -0.0188058522320817128603565 0.8807735849737736710807212
1.564850291199972431854803 -0.03482487199024709295658297 0.8894307417613577237958111
1.567088612540873171496969 0.01880585223208174755482602 0.8807735849737738931253261
1.564850291199972431854803 0.03482487199024711377326469 0.8894307417613577237958111
1.575477678709343409835242 0.002250651235688843222054745 0.8753662130390693629777843
1.574787642216023408892056 -0.0006476469085012816770743904 0.874564710875475492812825
1.574408085926635836315768 0.0001114656702737769155111061 0.8742966202563616784360079
1.566019019758165597977495 0.01070327819913519454275708 0.8797039921910663196058522
1.558009509879082710170906 0.02801759177430315772561187 0.8853794547448844420856062
1.558009509879082710170906 -0.00661103537603277037482119 0.8853794547448844420856062
0.9842018143741484426101351 -0.01056784240357553153466519 0.9188475977573968833667095
0.9921009071870742213050676 0.006967305303906285579573776 0.9139979170760167415110686
0.9921009071870742213050676 -0.02810299011105735905724501 0.9139979170760167415110686
0.989576571394393700309422 -0.03420181437414848008016222 0.9109485049444711046717771
0.989576571394393700309422 0.03420181437414850089684393 0.9109485049444711046717771
0.9816774785814678105921871 -0.01666666666666664908813544 0.915798185625851246527418
0.987052235601713068291474 -0.004180190544546118561197723 0.9078990928129254678324855
0.987052235601713068291474 0.02915314278878721257481921 0.9078990928129254678324855
1.033892659123574198076767 -0.00970199037641653223851268 0.9435946494999905009848362
1.026554355311801280947748 0.01082064195689801978927935 0.9371892989999812684231983
1.033892659123574198076767 0.03134327429021256661290096 0.9435946494999905009848362
1.020149004811791826341505 -0.03718929899998121152426833 0.9299773949648694193470533
1.020149004811791826341505 0.03718929899998121846316224 0.9299773949648694193470533
1.006405350500009676650848 0.00995478992973900488061556 0.9163601404297483377092703
1.012810701000019131257091 -0.01056784240357553673883562 0.9235720444648599647408105
1.006405350500009676650848 -0.03109047473689009050135112 0.9163601404297483377092703
1.590091316088338979639616 0.003970915563654452314079624 0.9202274750268220060434032
1.595045658044169423206426 0.02739556498532624145836323 0.9255919241861516599811921
1.595045658044169423206426 -0.01945373385801737325939698 0.9255919241861519930480995
1.584150179915685185960683 -0.04009131608833845644701555 0.9152731330709912294096853
1.584150179915685185960683 0.04009131608833849114148506 0.9152731330709912294096853
1.579195837959854298304663 -0.01666666666666663521034764 0.909908683911661464449594
1.57325470178720050462573 -0.0150329735019638054127622 0.9049543419558305767935735
1.57325470178720050462573 0.01830035983136952745797821 0.9049543419558305767935735
1.626416483461795348119949 0.001299333185585295783945337 0.9248828497237902013239363
1.626682741620086858347349 -0.0007668168690023549095846622 0.925915924751083974086896
1.619403405364179704406524 -0.01379185564281193085434118 0.9346326665189185201043642
1.611857810949981040238299 -0.03175785549506388721896499 0.9423163332594592933588729
1.611857810949980818193694 0.004174144209440008163047864 0.9423163332594592933588729
1.623072313826109613899007 -0.007987672456956852046205952 0.9223054969571067296385536
1.614355572058274734814631 -0.02388752225462115533205498 0.9246743631734350987727566
1.610420405438053537139353 -0.0346326665189186089222062 0.9359684577079532274979101
1.614355572058274734814631 0.02388752225462120043486536 0.9246743631734350987727566
1.610420405438053537139353 0.03463266651891861586110011 0.9359684577079532274979101
1.623072313826109613899007 0.007987672456956911026804136 0.9223054969571065075939487
1.622806055667818103671607 -0.005921522402369203304239864 0.921272421929812956875594
1.619461886032132369450665 0.0007668168690024128059806729 0.9186950691631292631456063
1.610745144264297490366289 0.003970915563654456650888314 0.9210639353794578543244143
1.60537257213214901163667 0.02655910463269033766620097 0.9260101543624696951440001
1.60537257213214901163667 -0.01861727350538146252834082 0.9260101543624698061663025
1.036654160756171672019832 -0.01295405446518616693341031 0.9652021453445684961991446
1.043327080378085636169772 0.007033439624318850794115754 0.9603855318233944782235767
1.043327080378085636169772 -0.03294154855469125231515193 0.9603855318233947002681816
1.040404068023201400450262 -0.03665416075617168589761974 0.9585292257226543100046001
1.040404068023201400450262 0.03665416075617176222545268 0.9585292257226543100046001
1.033731148401287436300322 -0.01666666666666659357698421 0.9633458392438282169578656
1.037481055668317164730752 -0.002525197286930233337570728 0.9566729196219140307633211
1.037481055668317164730752 0.03080813604640310690574445 0.9566729196219140307633211
1.089350529028395797581652 -0.00354942831922256405233207 0.9928999573476181561559883
1.080325328492770298183245 0.01558381970934737126288638 0.9857999146952365343565816
1.089350529028395575537047 0.03471706773791730094025354 0.9928999573476181561559883
1.073225285840388565361536 -0.0357999146952365857043965 0.9780895967816918279424954
1.073225285840388787406141 0.03579991469523660652107822 0.9780895967816916058978904
1.057100042652381555186025 0.00617919356338369855918824 0.9632792362157653887066999
1.064200085304763288007734 -0.01295405446518622938345544 0.9709895541293100951207862
1.057100042652381555186025 -0.0320873024937561659997165 0.9632792362157653887066999
1.593020833709870132111064 0.007653752080287604467323526 0.9646329183704178689140463
1.586041667419739731315076 -0.01666666666666666296592325 0.9718477097500134442853437
1.593020833709870132111064 -0.02567958125304573360758731 0.9646329183704178689140463
1.571855675788406125903407 -0.01170531659600000662369013 0.986041667419739420452629
1.564648850447202921287726 -0.03108031734907279464152907 0.9930208337098697102263145
1.564648850447202921287726 0.007669684157072781394148819 0.9930208337098697102263145
1.579064964306580387543022 -0.0360416674197394509837622 0.9648710066368543225578946
1.564878972675246782131353 -0.0360416674197394509837622 0.9790649643065801877028775
1.564878972675246782131353 0.03604166741973946486155 0.9790649643065801877028775
1.579064964306580387543022 0.03604166741973946486155 0.9648710066368543225578946
1.626472417133374648301469 0.0003839028878249331304395309 0.973911485754450745311317
1.626024135732556219480216 -0.001280465689461598001799847 0.9747436700430940348383047
1.624274301041034984649514 -0.002219203693580597790135922 0.9764935047346148255797971
1.622972747750332178640065 0.0003839028878249385514503933 0.9774111551374927708835116
1.617932906752770350067294 -0.01833103524395321426432304 0.9666524410633079433807779
1.610845027487451730507928 -0.03461379902279491937999722 0.958127156286062264811676
1.615749016263789084035807 -0.01926977324807221253477607 0.9704409289543098893204842
1.608959340574706020632334 -0.03371723622115829765988337 0.9614320495716462966484528
1.616183072061249115236592 0.01926977324807219518754131 0.9684022757548290671891777
1.607657787284003214622885 0.03555253702691391765045026 0.9623496999745242419521674
1.618936256467237821965455 0.01833103524395318650874742 0.9662183852658481342245977
1.610396746086633301686675 0.03371723622115828378209557 0.9589593405747055543386637
1.619384537868056028742103 -0.01666666666666668031315801 0.96538620097720484469761
1.611848377201919202406089 -0.02917805662001703506658323 0.9576931004886024556554958
1.611848377201919202406089 0.004155276713316298671518911 0.9576931004886024556554958
1.6072237314865431834221 0.007164621687462058990947256 0.9643883531740051751057763
1.614447462973086278026358 -0.01172124867278519569357975 0.9713585793571877236018963
1.6072237314865431834221 -0.03060711903303244343921286 0.9643883531740049530611714
1.098496794740382531685441 -0.01632717622664933698750644 1.001672950479626011954792