/*--------------------------------*- C++ -*----------------------------------*\
| =========                 |                                                 |
| \\      /  F ield         | OpenFOAM: The Open Source CFD Toolbox           |
|  \\    /   O peration     | Version:  v2012                                 |
|   \\  /    A nd           | Website:  www.openfoam.com                      |
|    \\/     M anipulation  |                                                 |
\*---------------------------------------------------------------------------*/
FoamFile
{
    version     2.0;
    format      ascii;
    class       volScalarField;
    location    "1";
    object      alpha.water;
}
// * * * * * * * * * * * * * * * * * * * * * * * * * * * * * * * * * * * * * //

dimensions      [0 0 0 0 0 0 0];


internalField   nonuniform List<scalar> 
96000
(
0
0
0
0
0
0
0
0
0
0
0
0
0
0
0
0
0
0
0
0
0
0
0
0
0
0
0
0
0
0
0
0
0
0
0
0
0
0
0
0
0
0
0
0
0
0
0
0
0
0
0
0
0
0
0
0
0
0
0
0
0
0
0
0
0
0
0
0
0
0
0
0
0
0
0
0
0
0
0
0
0
0
0
0
0
0
0
0
0
0
0
0
0
0
0
0
0
0
0
0
0
0
0
0
0
0
0
0
0
0
0
0
0
0
0
0
0
0
0
0
0
0
0
0
0
0
0
0
0
0
0
0
0
0
0
0
0
0
0
0
0
0
0
0
0
0
0
0
0
0
0
0
0
0
0
0
0
0
0
0
0
0
0
0
0
0
0
0
0
0
0
0
0
0
0
0
0
0
0
0
0
0
0
0
0
0
0
0
0
0
0
0
0
0
0
0
0
0
0
0
0
0
0
0
0
0
0
0
0
0
0
0
0
0
0
0
0
0
0
0
0
0
0
0
0
0
0
0
0
0
0
0
0
0
0
0
0
0
0
0
0
0
0
0
0
0
0
0
0
0
0
0
0
0
0
0
0
0
0
0
0
0
0
0
0
0
0
0
0
0
0
0
0
0
0
0
0
0
0
0
0
0
0
0
0
0
0
0
0
0
0
0
0
0
0
0
0
0
0
0
0
0
0
0
0
0
0
0
0
0
0
0
0
0
0
0
0
0
0
0
0
0
0
0
0
0
0
0
0
0
0
0
0
0
0
0
0
0
0
0
0
0
0
0
0
0
0
0
0
0
0
0
0
0
0
0
0
0
0
0
0
0
0
0
0
0
0
0
0
0
0
0
0
0
0
0
0
0
0
0
0
0
0
0
0
0
0
0
0
0
0
0
0
0
0
0
0
0
0
0
0
0
0
0
0
0
0
0
0
0
0
0
0
0
0
0
0
0
0
0
0
0
0
0
0
0
0
0
0
0
0
0
0
0
0
0
0
0
0
0
0
0
0
0
0
0
0
0
0
0
0
0
0
0
0
0
0
0
0
0
0
0
0
0
0
0
0
0
0
0
0
0
0
0
0
0
0
0
0
0
0
0
0
0
0
0
0
0
0
0
0
0
0
0
0
0
0
0
0
0
0
0
0
0
0
0
0
0
0
0
0
0
0
0
0
0
0
0
0
0
0
0
0
0
0
0
0
0
0
0
0
0
0
0
0
0
0
0
0
0
0
0
0
0
0
0
0
0
0
0
0
0
0
0
0
0
0
0
0
0
0
0
0
0
0
0
0
0
0
0
0
0
0
0
0
0
0
0
0
0
0
0
0
0
0
0
0
0
0
0
0
0
0
0
0
0
0
0
0
0
0
0
0
0
0
0
0
0
0
0
0
0
0
0
0
0
0
0
0
0
0
0
0
0
0
0
0
0
0
0
0
0
0
0
0
0
0
0
0
0
0
0
0
0
0
0
0
0
0
0
0
0
0
0
0
0
0
0
0
0
0
0
0
0
0
0
0
0
0
0
0
0
0
0
0
0
0
0
0
0
0
0
0
0
0
0
0
0
0
0
0
0
0
0
0
0
0
0
0
0
0
0
0
0
0
0
0
0
0
0
0
0
0
0
0
0
0
0
0
0
0
0
0
0
0
0
0
0
0
0
0
0
0
0
0
0
0
0
0
0
0
0
0
0
0
0
0
0
0
0
0
0
0
0
0
0
0
0
0
0
0
0
0
0
0
0
0
0
0
0
0
0
0
0
0
0
0
0
0
0
0
0
0
0
0
0
0
0
0
0
0
0
0
0
0
0
0
0
0
0
0
0
0
0
0
0
0
0
0
0
0
0
0
0
0
0
0
0
0
0
0
0
0
0
0
0
0
0
0
0
0
0
0
0
0
0
0
0
0
0
0
0
0
0
0
0
0
0
0
0
0
0
0
0
0
0
0
0
0
0
0
0
0
0
0
0
0
0
0
0
0
0
0
0
0
0
0
0
0
0
0
0
0
0
0
0
0
0
0
0
0
0
0
0
0
0
0
0
0
0
0
0
0
0
0
0
0
0
0
0
0
0
0
0
0
0
0
0
0
0
0
0
0
0
0
0
0
0
0
0
0
0
0
0
0
0
0
0
0
0
0
0
0
0
0
0
0
0
0
0
0
0
0
0
0
0
0
0
0
0
0
0
0
0
0
0
0
0
0
0
0
0
0
0
0
0
0
0
0
0
0
0
0
0
0
0
0
0
0
0
0
0
0
0
0
0
0
0
0
0
0
0
0
0
0
0
0
0
0
0
0
0
0
0
0
0
0
0
0
0
0
0
0
0
0
0
0
0
0
0
0
0
0
0
0
0
0
0
0
0
0
0
0
0
0
0
0
0
0
0
0
0
0
0
0
0
0
0
0
0
0
0
0
0
0
0
0
0
0
0
0
0
0
0
0
0
0
0
0
0
0
0
0
0
0
0
0
0
0
0
0
0
0
0
0
0
0
0
0
0
0
0
0
0
0
0
0
0
0
0
0
0
0
0
0
0
0
0
0
0
0
0
0
0
0
0
0
0
0
0
0
0
0
0
0
0
0
0
0
0
0
0
0
0
0
0
0
0
0
0
0
0
0
0
0
0
0
0
0
0
0
0
0
0
0
0
0
0
0
0
0
0
0
0
0
0
0
0
0
0
0
0
0
0
0
0
0
0
0
0
0
0
0
0
0
0
0
0
0
0
0
0
0
0
0
0
0
0
0
0
0
0
0
0
0
0
0
0
0
0
0
0
0
0
0
0
0
0
0
0
0
0
0
0
0
0
0
0
0
0
0
0
0
0
0
0
0
0
0
0
0
0
0
0
0
0
0
0
0
0
0
0
0
0
0
0
0
0
0
0
0
0
0
0
0
0
0
0
0
0
0
0
0
0
0
0
0
0
0
0
0
0
0
0
0
0
0
0
0
0
0
0
0
0
0
0
0
0
0
0
0
0
0
0
0
0
0
0
0
0
0
0
0
0
0
0
0
0
0
0
0
0
0
0
0
0
0
0
0
0
0
0
0
0
0
0
0
0
0
0
0
0
0
0
0
0
0
0
0
0
0
0
0
0
0
0
0
0
0
0
0
0
0
0
0
0
0
0
0
0
0
0
0
0
0
0
0
0
0
0
0
0
0
0
0
0
0
0
0
0
0
0
0
0
0
0
0
0
0
0
0
0
0
0
0
0
0
0
0
0
0
0
0
0
0
0
0
0
0
0
0
0
0
0
0
0
0
0
0
0
0
0
0
0
0
0
0
0
0
0
0
0
0
0
0
0
0
0
0
0
0
0
0
0
0
0
0
0
0
0
0
0
0
0
0
0
0
0
0
0
0
0
0
0
0
0
0
0
0
0
0
0
0
0
0
0
0
0
0
0
0
0
0
0
0
0
0
0
0
0
0
0
0
0
0
0
0
0
0
0
0
0
0
0
0
0
0
0
0
0
0
0
0
0
0
0
0
0
0
0
0
0
0
0
0
0
0
0
0
0
0
0
0
0
0
0
0
0
0
0
0
0
0
0
0
0
0
0
0
0
0
0
0
0
0
0
0
0
0
0
0
0
0
0
0
0
0
0
0
0
0
0
0
0
0
0
0
0
0
0
0
0
0
0
0
0
0
0
0
0
0
0
0
0
0
0
0
0
0
0
0
0
0
0
0
0
0
0
0
0
0
0
0
0
0
0
0
0
0
0
0
0
0
0
0
0
0
0
0
0
0
0
0
0
0
0
0
0
0
0
0
0
0
0
0
0
0
0
0
0
0
0
0
0
0
0
0
0
0
0
0
0
0
0
0
0
0
0
0
0
0
0
0
0
0
0
0
0
0
0
0
0
0
0
0
0
0
0
0
0
0
0
0
0
0
0
0
0
0
0
0
0
0
0
0
0
0
0
0
0
0
0
0
0
0
0
0
0
0
0
0
0
0
0
0
0
0
0
0
0
0
0
0
0
0
0
0
0
0
0
0
0
0
0
0
0
0
0
0
0
0
0
0
0
0
0
0
0
0
0
0
0
0
0
0
0
0
0
0
0
0
0
0
0
0
0
0
0
0
0
0
0
0
0
0
0
0
0
0
0
0
0
0
0
0
0
0
0
0
0
0
0
0
0
0
0
0
0
0
0
0
0
0
0
0
0
0
0
0
0
0
0
0
0
0
0
0
0
0
0
0
0
0
0
0
0
0
0
0
0
0
0
0
0
0
0
0
0
0
0
0
0
0
0
0
0
0
0
0
0
0
0
0
0
0
0
0
0
0
0
0
0
0
0
0
0
0
0
0
0
0
0
0
0
0
0
0
0
0
0
0
0
0
0
0
0
0
0
0
0
0
0
0
0
0
0
0
0
0
0
0
0
0
0
0
0
0
0
0
0
0
0
0
0
0
0
0
0
0
0
0
0
0
0
0
0
0
0
0
0
0
0
0
0
0
0
0
0
0
0
0
0
0
0
0
0
0
0
0
0
0
0
0
0
0
0
0
0
0
0
0
0
0
0
0
0
0
0
0
0
0
0
0
0
0
0
0
3.882167145476666146804529e-35
3.648906391140223010861824e-33
1.629906871776291564789391e-31
4.341158494490139463174955e-30
7.053818016309287590846215e-29
1.220449991833272413466826e-27
4.824497126803409727844088e-26
1.730258009471615103798866e-24
3.626305717230490823392539e-23
4.872030332671960884044548e-22
6.150709034696274847155955e-21
4.01753613627713529812577e-20
8.868441706434480667628018e-18
8.856757889266454029392257e-18
8.832439803063600406721801e-18
8.79295068331604530117112e-18
8.73403003799722720462063e-18
8.650607900503097138446924e-18
8.537548328680391346358449e-18
8.390021929906780470121783e-18
8.203465878437880293959152e-18
7.974293572458704648168622e-18
7.70250728370804223684769e-18
7.393763872338362900714336e-18
7.05506317343318533614934e-18
6.683285749933602531238662e-18
6.255680040188869624769098e-18
5.732419032276558622608793e-18
5.081020481039034202618584e-18
4.32871996772571299025073e-18
3.588648624540527679996482e-18
2.96627329456485384339605e-18
2.457479543503115330465187e-18
2.009163337078822687202318e-18
1.634752856233879069682995e-18
1.395895950213515176345101e-18
1.254761348053087754299783e-18
1.097604781523024513794914e-18
7.697772512704990755762129e-19
3.803750175119818200178532e-19
3.224987065448590692990883e-19
4.176397276649598074411229e-19
1.224198576017856754587347e-18
5.363883322678426681515754e-18
2.246805291657056495303583e-17
8.243016629560015145820265e-17
2.596903451668286221361805e-16
6.812930773954946762950131e-16
1.407732411016420711169317e-15
2.159375425141552442852356e-15
2.434697787886988245061538e-15
1.37788412454253390557607e-15
1.138696437440997932392737e-16
3.70671604003017759480244e-19
1.005191960486287762628349e-23
3.973841792949000137885862e-29
2.381876946592634464883884e-34
9.912032291125698268215579e-40
4.373301224469865442333475e-45
2.424399812644547176619698e-50
1.03446428592166436105587e-55
4.865579351323220188319488e-61
2.569564050367784563383244e-66
1.135199852109381361036608e-71
5.539192098975927616962443e-77
2.849244516470524596406815e-82
1.304792570537416351284542e-87
6.512428377855941522360135e-93
3.316405275024758149487556e-98
1.571010868996603984365213e-103
7.974104771941555561415646e-109
4.067169891179479037042339e-114
1.987142794325330549520907e-119
5.106734085641675544305331e-125
1.310870453707910786178032e-130
3.283084202567291806034252e-136
8.563240656079109777954924e-142
2.236651670479412480822573e-147
9.152910541178131325521258e-150
7.94877699720574547963465e-151
1.016224715529377537072877e-151
1.317095744961229688346508e-152
1.945394159216540003312556e-153
3.273661644689356765477057e-154
6.095214559401465820918547e-155
1.226843613567427718835417e-155
2.649156050530838111809986e-156
6.162968476374901889052801e-157
1.548043967282221566259349e-157
4.161376118340829805559807e-158
1.174872199213246678925568e-158
3.40882204226318739522807e-159
9.974384765725181587650494e-160
2.90266494305154860272855e-160
8.322933617017845873723704e-161
2.337376438431155654251865e-161
6.405308791266202056528073e-162
1.708946794037967255068314e-162
4.433143040782572052996879e-163
1.117275882207247256930806e-163
2.734680495468385754399736e-164
6.499589534448724687115027e-165
1.500034484584637948647201e-165
3.362009477819761447293072e-166
7.319030984081527909064597e-167
1.547952727564002881192718e-167
3.181373827716619128403278e-168
6.355273390609806521564901e-169
1.23432286850419664805416e-169
2.331370708616983703343362e-170
4.283451454790594027527202e-171
7.657482595909933933519699e-172
1.332276983153643209462099e-172
2.256433241711437457208694e-173
3.721080872082867777347976e-174
5.976259281145811149942941e-175
9.349625573426208973303332e-176
1.425114920726609757496316e-176
2.116793476806628915709588e-177
3.064486659128157273526395e-178
4.32475035840981659294673e-179
5.950556689709596111913505e-180
7.983850927155273679306192e-181
1.044687629839579820265606e-181
1.333326890953426436330563e-182
1.66003024963448424541023e-183
2.016386270912726332085269e-184
2.389765334921631564849239e-185
2.763772705134039805254565e-186
3.119270674739734413712054e-187
3.435912194862438273650222e-188
3.694029866393856628566342e-189
3.876642580026975436441456e-190
3.971297427319190179661454e-191
3.971470148196203628452746e-192
3.877305919175037647844934e-193
3.695584083961012397153714e-194
3.438915471046738999840301e-195
3.124303609235474992743512e-196
2.77129655729188973140049e-197
2.400006152571841539163918e-198
2.029269123349023020836515e-199
1.675174516115463074507853e-200
1.350098887309467982946815e-201
1.062294689574745166300996e-202
8.159883096072770904591258e-204
6.118778192504924129032003e-205
4.478848991264116532809958e-206
3.200109649514242374473538e-207
2.231682892755577551804012e-208
1.518932124001620646470054e-209
1.008900048154315630506521e-210
6.53918987914195657019515e-212
4.13546504906177726961446e-213
2.551551230418214789166444e-214
1.535730351646604168062978e-215
9.015789630099669074133738e-217
5.161954493109903867445192e-218
2.881944548171603006236278e-219
1.568748833294632265029257e-220
8.324316451902501652983878e-222
4.305243529905346329529083e-223
2.169815820307863166384947e-224
1.06547023276298968601252e-225
5.096422737268887246178089e-227
2.374119091351245902781068e-228
1.07684803108446627833755e-229
4.754639252737516658124184e-231
2.043066614295464855512436e-232
8.541492769356551123393873e-234
3.47335720117122151659139e-235
1.373412457801468595118e-236
5.279013768434864067216388e-238
1.971795636899196091622945e-239
7.154470754147720937857804e-241
2.52081278466359288092254e-242
8.621510815209750977221105e-244
2.861072411586269830618872e-245
9.208527010591790591192869e-247
2.873227601943130699957298e-248
8.686803546533459620397167e-250
2.543546827289111885708903e-251
7.20901903576578425066855e-253
1.976617270118837802439864e-254
5.239834807851167722853649e-256
1.342097396322548154261165e-257
3.319156250401283981511681e-259
7.920196546023555699937092e-261
1.82211681177276049171229e-262
4.038258793908937613098733e-264
8.614136909124206033706243e-266
1.766953929754572272569471e-267
3.481787784426251304160656e-269
6.583844586552175029774886e-271
1.193326296236955537844876e-272
2.070643145615643841157055e-274
3.435099915524698835085914e-276
5.440463509766228434628952e-278
8.21327083281861347915709e-280
1.179890334567039176575888e-281
1.609927355772182082452217e-283
2.082221329928936176293795e-285
2.547018285349115296543175e-287
2.939331838546533137465996e-289
3.191428984446190591237842e-291
3.250214275536092984085652e-293
3.094110267377370648856202e-295
2.742636405504274140514556e-297
2.253645671993798630196398e-299
1.707955808197699643859345e-301
1.186788110814285198555928e-303
7.508574559814557860072697e-306
4.289763011337806483804882e-308
2.191002280265337433965875e-310
9.88091642909473671859555e-313
3.873132275902804922489185e-315
1.292673849844683299430119e-317
3.573576816369736254029122e-320
8.399115979301191251001669e-323
0
0
0
0
0
0
0
0
0
0
0
0
0
0
0
0
0
0
0
0
0
0
0
0
0
0
0
0
0
0
0
0
0
0
0
0
0
0
0
0
0
0
0
0
0
0
0
0
0
0
0
0
0
0
0
0
0
0
0
0
0
0
0
0
0
0
0
0
0
0
0
0
0
0
0
0
0
0
0
0
0
0
0
0
0
0
0
0
0
0
0
0
0
0
0
0
0
0
0
0
0
0
0
0
0
0
0
0
0
0
0
0
0
0
0
0
0
0
0
0
0
0
0
0
0
0
0
0
0
0
0
0
0
0
0
0
0
0
0
0
0
0
0
0
0
0
0
0
0
0
0
0
0
0
0
0
0
0
0
0
0
0
0
0
0
0
0
0
0
0
0
0
0
0
0
0
0
0
0
0
9.99903505913309706856449e-36
3.594015416478901152690327e-33
2.869744087722579011298656e-31
1.201010042966392754844713e-29
3.457725278578653573750102e-28
6.910795639369742459819942e-27
1.00141216341824457501588e-25
1.739931964733174286403721e-24
3.749373406987516407531029e-23
9.593941582669591583534746e-22
2.025811905897452061671013e-20
3.968941391634770333798863e-19
3.393697944256195410413616e-18
6.972486252399020586327952e-16
7.514759547549625209084517e-16
7.516337003084761411652739e-16
7.505796206903298411993206e-16
7.490391945089613872621108e-16
7.474515986837029020336238e-16
7.4462628293586469261075e-16
7.381499687330763496039364e-16
7.252541520927873807931493e-16
7.047631643453114760522709e-16
6.766510471103546485884093e-16
6.392676441111307233935827e-16
5.888694361350739557344831e-16
5.232084603194925685699755e-16
4.465917014092590996872249e-16
3.701185726618707549845101e-16
3.04821987423259293804897e-16
2.548282871948116598762294e-16
2.165596844500364199958989e-16
1.827805073310030346347656e-16
1.482151880279134823062979e-16
1.165792261716450883499733e-16
9.729994734293506527134622e-17
8.786399071538362304716781e-17
7.860703416093475492380862e-17
5.779027191147671740486845e-17
3.093221509871850334670468e-17
2.7781301090199021247956e-17
4.327134333319589603129312e-17
1.736630776461663201806081e-16
8.734206163410005173962067e-16
3.818212690358962164252718e-15
1.369238382823275075467901e-14
3.894120615687130178083577e-14
8.251838008574835960362594e-14
1.259090831853970907295734e-13
1.416578104912543840505007e-13
8.468329815188851371665632e-14
1.00483182315062134187251e-14
3.547572272989962950649968e-16
7.54643237154069503914006e-18
1.09217646120632462272753e-20
1.617508341810958678001036e-25
1.335197309086619469893574e-30
7.298311858368674950280091e-36
3.685646457069766547722138e-41
2.428452376627570496325055e-46
1.208528870774125091078298e-51
6.272941186294204850426675e-57
3.722257772217948733193848e-62
1.828974191647517211071773e-67
9.661874063243167207846695e-73
5.42150452350303894356542e-78
2.694934630426138768063762e-83
1.437966996181793989199256e-88
7.84824694876182714679255e-94
3.977743817176066888214865e-99
2.138674092098572518907119e-104
1.155871673653758993182422e-109
5.984316331479673237536196e-115
3.243298155704141070320769e-120
8.601624412205419705722548e-126
2.230531602482421209265689e-131
5.993145102402440270603699e-137
1.60651355328976585927374e-142
4.419304449011491452187278e-148
6.112032945587052731327746e-150
8.427585164453676194806719e-151
1.262831664226932315348764e-151
2.104702405583694582023936e-152
4.06685201196507379394192e-153
8.723658761466703618830403e-154
2.017801435330544955172451e-154
4.983586018974096309910667e-155
1.315817799139567149408209e-155
3.705555775546021070717852e-156
1.099518237196668470610069e-156
3.372940119543500583777392e-157
1.049296086761906571206342e-157
3.259123145604872741676456e-158
9.99597982882737541271541e-159
3.005594601410894455812316e-159
8.81955620615976221202331e-160
2.518711753729159577492679e-160
6.989134120221364136929577e-161
1.882742612107998035890631e-161
4.921387225346112239084666e-162
1.248085280764652309896662e-162
3.070942499265495601136302e-163
7.332143010978861144140587e-164
1.699084717391146591804365e-164
3.822405615677142958488631e-165
8.350654526211979297588571e-166
1.772135027486470625346796e-166
3.65425321216669547905641e-167
7.324178275247456144769292e-168
1.427278457398715963681807e-168
2.705055302997060208180714e-169
4.987530118054022776862621e-170
8.948636447980926738323431e-171
1.562807623247136714427435e-171
2.657308969699976139231442e-172
4.400196850252324845347803e-173
7.09735278695475098935346e-174
1.115348868397660460983515e-174
1.708071701137482354316847e-175
2.549580437792178291504247e-176
3.710053440052995760162854e-177
5.264019189873305134400932e-178
7.283719344703849577753541e-179
9.830048231664349803360156e-180
1.294162617574648669945288e-180
1.662312814470851728347473e-181
2.083451006335168715140143e-182
2.548311411266605974090041e-183
3.04206568233478436762737e-184
3.544671872469304428721028e-185
4.031955113109680663180388e-186
4.477388620958102072600057e-187
4.854417150873263497897754e-188
5.13905060094872456211333e-189
5.312379574995666765048515e-190
5.362647725059691861012832e-191
5.286566119497348662093027e-192
5.089666157552617711064172e-193
4.785638888653628650466333e-194
4.394769666640124464797215e-195
3.94171536743940966467656e-196
3.452960155540739541273447e-197
2.954310207179117519788265e-198
2.468747926577668434810499e-199
2.014875775706995011908294e-200
1.606061842297798803621345e-201
1.250279548446371321976536e-202
9.505349435113510588192809e-204
7.057114277255057990360897e-205
5.116383372581303615298359e-206
3.62202426921786298742352e-207
2.503595388367162985825981e-208
1.689546824898527638007341e-209
1.113102080742722291308244e-210
7.158471741637969451552121e-212
4.493497735571708865368817e-213
2.752848667108228538883653e-214
1.645753324624757075123474e-215
9.600170159587095526138034e-217
5.463465399527219696313127e-218
3.032995864206548433809292e-219
1.642195817185328689992468e-220
8.670785736376708436946937e-222
4.463739511044268506590508e-223
2.240103261362163346186094e-224
1.095678789743255962680819e-225
5.222239754606355211865846e-227
2.424911633017069526837368e-228
1.096737028510299590853499e-229
4.830287338209571535605554e-231
2.071084941978796001542706e-232
8.642948253398526831421894e-234
3.509483548214060231516027e-235
1.386160114221329213184316e-236
5.323988153199905132301399e-238
1.987794596234276097352872e-239
7.212173427779026269546491e-241
2.541922681858489283207714e-242
8.699466937069335356205588e-244
2.889884529964870476715233e-245
9.314070561846536447157758e-247
2.911206355427959826993493e-248
8.820090865121561626034061e-250
2.588928553090143214176902e-251
7.358371045292935616985234e-253
2.024007009447885407779075e-254
5.384564267024212081449986e-256
1.384589863791073358779634e-257
3.438987666376711834026104e-259
8.244560264834314458629098e-261
1.90634026836811099820568e-262
4.247920828961988700437061e-264
9.114207873081290123044792e-266
1.881159684181223529490398e-267
3.731350611175575063884285e-269
7.10523572262310228858738e-271
1.297379510395127050254741e-272
2.268808183426258640351909e-274
3.794849659244026975379013e-276
6.062253737180002171928259e-278
9.235069973081633001586184e-280
1.339297438192559927719538e-281
1.845616212354472591395388e-283
2.411865947165367558764529e-285
2.982251107194859495764498e-287
3.480525773988053487346884e-289
3.823556240417811769753394e-291
3.941725240271581090332905e-293
3.800252959997679368507074e-295
3.413204057816187182109823e-297
2.843261811380231902598441e-299
2.185598017510133278086845e-301
1.541204524268348498746357e-303
9.900911796360842769901548e-306
5.746791589960549119709175e-308
2.983736591073154028558874e-310
1.368671468772596738881534e-312
5.46029247669488215924858e-315
1.855965997718621944390532e-317
5.220791679604452232313802e-320
8.399115979301191251001669e-323
0
0
0
0
0
0
0
0
0
0
0
0
0
0
0
0
0
0
0
0
0
0
0
0
0
0
0
0
0
0
0
0
0
0
0
0
0
0
0
0
0
0
0
0
0
0
0
0
0
0
0
0
0
0
0
0
0
0
0
0
0
0
0
0
0
0
0
0
0
0
0
0
0
0
0
0
0
0
0
0
0
0
0
0
0
0
0
0
0
0
0
0
0
0
0
0
0
0
0
0
0
0
0
0
0
0
0
0
0
0
0
0
0
0
0
0
0
0
0
0
0
0
0
0
0
0
0
0
0
0
0
0
0
0
0
0
0
0
0
0
0
0
0
0
0
0
0
0
0
0
0
0
0
0
0
0
0
0
0
0
0
0
0
0
0
0
0
0
0
0
0
0
0
0
0
0
0
0
1.598385253659794236981403e-36
6.054501212131681403404326e-34
1.181390075899713341441787e-31
8.766886637055511001276725e-30
3.713450085264171244840257e-28
1.065394394696801587989313e-26
2.160024972505764472314805e-25
3.370255708301684773515355e-24
4.821963807181088133549197e-23
6.352361921982528510472861e-22
1.141536077070180133856775e-20
2.489424034583322690903237e-19
7.402749577586578929538978e-18
6.520049991763776986459178e-17
1.23801396456243259287958e-14
1.567863529765873534058222e-14
1.794663369923655819035835e-14
1.963332593917854475950359e-14
2.045102874055010264701675e-14
2.061074747732638428826533e-14
2.061306145392066971873553e-14
2.060795355002044498318935e-14
2.058121118042864689230101e-14
2.043536313007131247636851e-14
1.987844221037820281995574e-14
1.85479933874889362811871e-14
1.645434787690123290442673e-14
1.403974316460584156263136e-14
1.173548110333079175879453e-14
9.771715634868635875735754e-15
8.215261968045997594206348e-15
6.954146413097108403702409e-15
5.759345629033182324903332e-15
4.525930336972923475898562e-15
3.52116041820771959180122e-15
2.997000594269566352183001e-15
2.759061686253529168568904e-15
2.533172181099310511287263e-15
2.004040071532899628571655e-15
1.092359999670366448811915e-15
8.871949422585515908858708e-16
1.308359461810529575806168e-15
5.687962281245336666756245e-15
3.370576378008896907829416e-14
1.687562303364422740394506e-13
6.420291566920603436189262e-13
1.710826313140395902851429e-12
2.95730061288025900755027e-12
3.439965956780494414245498e-12
2.525372291018894463083439e-12
4.980754058513727648788346e-13
2.861287998560597969644644e-14
9.853798293013757902308597e-16
6.045747683202537551041355e-18
1.555452563674784921470708e-20
3.971159753659598947002548e-24
5.904531553838890640537116e-29
4.306012341633401263396892e-34
3.402006788748812427580014e-39
3.775106035803349894171257e-44
2.0383260129435514342127e-49
1.466969468123161746406698e-54
1.213322296264083761611873e-59
6.299105169261155380522096e-65
4.34646118192203291100892e-70
3.038117707618317438275762e-75
1.608223543314526496747489e-80
1.068800360587560238881105e-85
6.816712042365712352522739e-91
3.721391056581910493627224e-96
2.397133582854597514476973e-101
1.460429813718986205175542e-106
8.202367392887239851375447e-112
5.163511996793769158498583e-117
3.084778028413610464996055e-122
8.398533835634233818397735e-128
2.47745804128655673080883e-133
7.025193598648696221934649e-139
1.964661039896352908352596e-144
2.404972621912906324604612e-149
3.733418908837428826808454e-150
6.035631281419980210017799e-151
1.134964679747766196162216e-151
2.546955496761586075900852e-152
6.34297638370290424611193e-153
1.694999085893347558917555e-153
4.797208249109914176517487e-154
1.434896367059853289434647e-154
4.509007805294930549199946e-155
1.468199851321824026932659e-155
4.867903636943614699401088e-156
1.617166053067937151667949e-156
5.317026864310199225259609e-157
1.715598097873906415856582e-157
5.403097106241621550873999e-158
1.655426888922846500559911e-158
4.92461074068506576390844e-159
1.420894471876836757862069e-159
3.974218724051136670834339e-160
1.077367408016989048965117e-160
2.830834373897626026181307e-161
7.210728251430898114115207e-162
1.78102428365635950185671e-162
4.266979549428200844585266e-163
9.919223955220084028262528e-164
2.238173764771308040386962e-164
4.903694366255013359340738e-165
1.043566559232839516262503e-165
2.157918558367225216067735e-166
4.337256513651492625804015e-167
8.476227567798311821039283e-168
1.611144850841472840093015e-168
2.979494257589265747095205e-169
5.362315179153601106666032e-170
9.394724779620978334099837e-171
1.60269975404292804043067e-171
2.662965279513253878433855e-172
4.310497684423176750179291e-173
6.79885692339544084898671e-174
1.045162314017204396090566e-174
1.566241221466548600289389e-175
2.288460516839490780899596e-176
3.260739414802785043432138e-177
4.531584293494566686591079e-178
6.143477235880675318388295e-179
8.125932918501602045861631e-180
1.048787115105384186222048e-180
1.321030422741394436144045e-181
1.624059366159211422919343e-182
1.948960038452296274599321e-183
2.283286845406503634557795e-184
2.611652376532970258144233e-185
2.916787881191991394079011e-186
3.180992073340563794445334e-187
3.387808037276254929588293e-188
3.523710806975487279042427e-189
3.579566315130711014854075e-190
3.551643623392545064392269e-191
3.44202505488076111070874e-192
3.258351902478590516441576e-193
3.012948463864513314165467e-194
2.721463138694406084662693e-195
2.401233424297769337312325e-196
2.069609834507335226248324e-197
1.742459294924537739185224e-198
1.433017977736980473495252e-199
1.151190320832594302520051e-200
9.033117304155649372751154e-202
6.923227522197288351157737e-203
5.182535018965382189168781e-204
3.788939338079817527549592e-205
2.705270524814045140192609e-206
1.886227310402594263638064e-207
1.28421279927367620697679e-208
8.537006806048796712705539e-210
5.540673751120886219400358e-211
3.510484444930732504409245e-212
2.171074598038886048288787e-213
1.310502234164463874507973e-214
7.71977333584872592942733e-216
4.437309996228973888252803e-217
2.48842318768981453955241e-218
1.361302974722407163828537e-219
7.26347045751185260969535e-221
3.779382954820837603402528e-222
1.917384099294558594198156e-223
9.482622671551621787633948e-225
4.570817571645811732332517e-226
2.146917980885140769956168e-227
9.824222215734349953634878e-229
4.378665783673367553746307e-230
1.900380417918451338541607e-231
8.029396509699800172464024e-233
3.301804312688074819040305e-234
1.321058253241457681017842e-235
5.141198068171192827889772e-237
1.945543636242864438704452e-238
7.156605694529686074757482e-240
2.558056473681829470465893e-241
8.881562023458786111590666e-243
2.994162431412502968009845e-244
9.796919486020173931594736e-246
3.109879296028003218833397e-247
9.572791093812096495684711e-249
2.856043697524317803741027e-250
8.254688010225721828513538e-252
2.309998496333460860531578e-253
6.255327319429025999504697e-255
1.63814821421161802914317e-256
4.146130310573440941580372e-258
1.013500905435297301017825e-259
2.391020329104701855519026e-261
5.439850157633287833272871e-263
1.19255970226103923811213e-264
2.517006049619870079198431e-266
5.109694886970786163340315e-268
9.967348502861923883603176e-270
1.866270502701575578325274e-271
3.350285489839514303685675e-273
5.759241938822333964189636e-275
9.46775191419481922069572e-277
1.486281403762586930852342e-278
2.224587745207412827351668e-280
3.16923509479775047428648e-282
4.289536798759054403363712e-284
5.504718463991716530501872e-286
6.682797341540943688611837e-288
7.656108405176461897148402e-290
8.254573271037937088136457e-292
8.350067053858718719927677e-294
7.897740596147117809177667e-296
6.957405601008618501610528e-298
5.683321792884217053209318e-300
4.283109974307071860315474e-302
2.96042129075593119209944e-304
1.863678466981087497587349e-306
1.059789107288303525534335e-308
5.389465240012719149437588e-311
2.4208384887200372571936e-313
9.454774533040634640899265e-316
3.145384943088503111587615e-318
8.730139962014826435599971e-321
0
0
0
0
0
0
0
0
0
0
0
0
0
0
0
0
0
0
0
0
0
0
0
0
0
0
0
0
0
0
0
0
0
0
0
0
0
0
0
0
0
0
0
0
0
0
0
0
0
0
0
0
0
0
0
0
0
0
0
0
0
0
0
0
0
0
0
0
0
0
0
0
0
0
0
0
0
0
0
0
0
0
0
0
0
0
0
0
0
0
0
0
0
0
0
0
0
0
0
0
0
0
0
0
0
0
0
0
0
0
0
0
0
0
0
0
0
0
0
0
0
0
0
0
0
0
0
0
0
0
0
0
0
0
0
0
0
0
0
0
0
0
0
0
0
0
0
0
0
0
0
0
0
0
0
0
0
0
0
0
0
0
0
0
0
0
0
0
0
0
0
0
0
0
0
0
0
0
9.400263839768024632760767e-35
1.975765515430508563472678e-32
2.44325577193533898939355e-30
1.634206745168630758280536e-28
6.613126214048236855377639e-27
1.794700837326741746649542e-25
3.564411453500533121548724e-24
5.805501290630483513718499e-23
8.666926541985590130385575e-22
1.124162883174259288202259e-20
1.383942416359468407234835e-19
2.020413431939149168644245e-18
4.289808540310960909149085e-17
4.059108831249118069942957e-16
2.49351921431655265425347e-13
3.231185212876042193913925e-13
3.745688759843468930751105e-13
4.012811899005410561846574e-13
4.069195070242121389399654e-13
4.074895223653139738934269e-13
4.074249273240447712342782e-13
4.050312521569015245468823e-13
3.937944542351292693721721e-13
3.673721598215416833608396e-13
3.284494421790647268178992e-13
2.860172816383206279348364e-13
2.456217863806684134412029e-13
2.093995351217093333332421e-13
1.793527492342655786898024e-13
1.557283705100620243483746e-13
1.342682439093185386040624e-13
1.083499133033933641766484e-13
7.943058769228692236682407e-14
6.161251680401174595358913e-14
5.645462287348219391831082e-14
5.526956136449972341652733e-14
5.437610312981932918026333e-14
5.029366729290080595920274e-14
3.292416522520495906038533e-14
1.936774545348669660773263e-14
2.151058836639112014879858e-14
6.24140486075789393712322e-14
3.927900312870525855038326e-13
2.466445902744848525131884e-12
1.170252908330193610709468e-11
3.158725561025622850109316e-11
4.518860266206651722167309e-11
4.203016647602576455402604e-11
1.507410040900279264771545e-11
1.447906855742962558366485e-12
6.695651939072689718535375e-14
7.51945648177438163764063e-16
3.462308670636366312406049e-18
2.048671905429065916608715e-21
4.412475254883332335821309e-25
1.903180679346744807330853e-29
2.438979546868439156255377e-34
2.769645774198930838338275e-39
4.617337212919382573878408e-44
2.722306322922653951350052e-49
3.121558012787621690250004e-54
4.355998335577831260383095e-59
2.304291345217358119716228e-64
2.441821704040576079495869e-69
2.43733952655016743840603e-74
1.359592997528873699658009e-79
1.288633510048036036442247e-84
1.051958481506809488987954e-89
6.277565968585177642838489e-95
5.404357392819692590274372e-100
3.96060276027921864807105e-105
2.488271579030022869859568e-110
1.98707483388547740154018e-115
1.379516589152519673152988e-120
8.955167380560629111854942e-126
3.054163466972776445613186e-131
9.396103647638277974800726e-137
2.840599039735289906424178e-142
9.681707478745704716678462e-148
9.463364424179147995196161e-150
1.680825492120041411499126e-150
3.950831040957055878766808e-151
1.065524129388194890489566e-151
3.140865647705459663202786e-152
9.753374773200266315080404e-153
3.159131455028243511872143e-153
1.064730478403614567361018e-153
3.706500001500026720108208e-154
1.315152554340299498727424e-154
4.686306367130503266009571e-155
1.655743645189169251454616e-155
5.746440459062779799999933e-156
1.946866314979754256628629e-156
6.413684952466912666155767e-157
2.049782307543204995912776e-157
6.34717028007604031678239e-158
1.903066248775065581553819e-158
5.523792802563979305949579e-159
1.552211236762164454130974e-159
4.223608786502928861574471e-160
1.113185313459464402145071e-160