# geometry NO_DATA 580
#  x  y  z
4.042705318675867687261416 0.006231912055202883105042844 2.063526593379335416500453
4.035410637351735552158516 -0.01666666666666666296592325 2.070821274703469327960192
4.042705318675867687261416 -0.02710142127813044976569756 2.063526593379335416500453
4.020821274703471281952716 -0.0125120586298611488618171 2.085410637351735374522832
4.013526593379339146849816 -0.0312560293149298923376378 2.092705318675867509625732
4.013526593379339146849816 0.006231912055207601552897501 2.092705318675867509625732
4.028115956027597199806678 -0.03541063735173541338063785 2.063526593379330975608354
4.013526593379332929600878 -0.03541063735173541338063785 2.078115956027597022170994
4.013526593379332929600878 0.03541063735173542031953176 2.078115956027597022170994
4.028115956027597199806678 0.03541063735173541338063785 2.063526593379330975608354
4.09197081036660392783233 0.001824862199625587339674171 2.05985405183302106024712
4.083941620733209099114447 -0.01666666666666669072149887 2.067883241466417221232632
4.09197081036660392783233 -0.03150847113370774943419406 2.0598540518330201720687
4.074569635390671962227316 -0.002077304018407658513234448 2.076646939409079628546806
4.073226839681529654058068 0.0006082873998759889822007807 2.077381447718345430786258
4.075912431099811605861305 -0.03394162073320936001685766 2.05985405183301972797949
4.065932158357401071668846 -0.01935225808495032867595498 2.070086766394208854791259
4.059245764433144998406533 -0.03394162073320936001685766 2.061323068451545559298665
4.066540445757274468974174 0.01935225808495029398148546 2.068617749775682135293664
4.057902968724002690237285 0.03541063735174095061797317 2.062057576760811361538117
4.075912431099811605861305 0.03394162073320934613906985 2.05985405183301972797949
4.057294681324130181110377 0.006231912055208420342378162 2.063526593379338081035712
4.064589362648259651678018 -0.01251205862986588292218304 2.070821274703474657030711
4.057294681324130181110377 -0.03125602931494016190061558 2.063526593379338081035712
4.141859603656401489502059 0.001157621938411573011412647 2.059298018282008868595767
4.13371920731280440008959 -0.01666666666666669072149887 2.067438414625608178454286
4.141859603656401489502059 -0.03217571139492175769092341 2.059298018282008868595767
4.125081730279532621352701 -0.0006082873998773650515980993 2.075690017679409749007391
4.124584649589857932028281 0.0003858739794713217136253036 2.075801224389612897880397
4.125578810969204646141861 -0.03371920731280470678870032 2.059298018282008868595767
4.116555459956463103310398 -0.01766082804601538241984215 2.067772034756215404627255
4.108912144302538038687089 -0.03371920731280471372759422 2.05952043170241338998494
4.116941333935932867404972 0.01766082804601533037813788 2.067549621335809995059662
4.108415063612863349362669 0.03394162073321065065112379 2.059631638412616538857947
4.125578810969203757963442 0.0337192073128046790331247 2.059298018282008868595767
4.108029189633394473446515 0.001824862199626894887494188 2.05985405183302106024712
4.116058379266789302164398 -0.01545009186691711534911153 2.067883241466418553500262
4.108029189633393585268095 -0.03272504593346109436069469 2.05985405183302106024712
4.19184316064499284948397 0.001058963869962218588144376 2.059215803224967888951369
4.183686321289986409510675 -0.01666666666666666990481716 2.067372642579974773013873
4.19184316064499284948397 -0.03227436946337111645100038 2.059215803224967888951369
4.175160050966916891468372 -0.0003858739794715433787594683 2.075545924946390119458783
4.174790619998853813399364 0.0003529879566548747025014898 2.075562367957798137751979
4.17552948193497996953738 -0.03368632128998820529641733 2.059215803224967888951369
4.166650223655256723986895 -0.01740552860279308278190769 2.06742197161419927198267
4.158862815268312473904189 -0.03368632128998820529641733 2.05924868924778436962697
4.167003211611910451495078 0.01740552860279308278190769 2.067389085591383235396279
4.1584933843002502840136 0.03371920731280487332215401 2.059265132259192387920166
4.17552948193497996953738 0.03368632128998820529641733 2.059215803224967444862159
4.158140396343595668326998 0.001157621938411769468846302 2.059298018282008868595767
4.166280792687193645917887 -0.0158949187077264374179375 2.067438414625607734365076
4.158140396343595668326998 -0.03294745935386464430472131 2.059298018282008868595767
4.241866101133113353682802 0.001196606798678715626385594 2.059330505665564636785803
4.233732202266226707365604 -0.01666666666666666296592325 2.06746440453245261537063
4.241866101133113353682802 -0.03213672653465461659383351 2.059330505665564636785803
4.225222374954565651705707 -0.0003529879566548740519801863 2.075575362911220800299361
4.224846446509790354184588 0.0003988689328938346953176697 2.075552422423101450732474
4.225598303399338284691567 -0.03373220226622716810815916 2.059330505665564636785803
4.216689607154785690568133 -0.01741852355621537756791284 2.06739558306809456666997
4.208931636732671677236794 -0.03373220226622716810815916 2.059284624689326381741239
4.217088476087678117210089 0.01741852355621537756791284 2.067441464044333265803743
4.208555708287897267894095 0.03368632128998821223531124 2.059261684201207032174352
4.225598303399338284691567 0.03373220226622716810815916 2.059330505665565080875012
4.208156839355004841252139 0.001058963869962218588144376 2.059215803224967888951369
4.216313678710010393047014 -0.01596069075335932591075405 2.067372642579974773013873
4.208156839355004841252139 -0.03298034537668086824124813 2.059215803224967888951369
4.291991553494491462572569 0.001949320966949705680876237 2.059957767472456957591476
4.283983106988983990959241 -0.01666666666666669072149887 2.067966213977966649650853
4.291991553494491462572569 -0.03138401236638363456243894 2.059957767472456957591476
4.275450339189203141643247 -0.0003988689328935405512682744 2.075849208122097611095569
4.274926017894931540297421 0.0006497736556511368721800181 2.075723755760718880480908
4.275974660483473854810654 -0.03398310698898451831517775 2.059957767472456957591476
4.266792119028044893980223 -0.01771530925521136445865977 2.067589856893830901896081
4.259307993816807247355882 -0.03398310698898451137628385 2.059706862749700384540574
4.26744189268369389367308 0.01771530925521132282529635 2.067840761616587919036192
4.258783672522535646010056 0.03373220226622682810235787 2.059581410388322098015124
4.275974660483474742989074 0.03398310698898449749849604 2.059957767472456957591476
4.258133898866885758138778 0.001196606798678376271105606 2.059330505665564636785803
4.266267797733772404455976 -0.01586892880088180621256377 2.06746440453245217128142
4.258133898866885758138778 -0.03293446440044196787955144 2.059330505665564636785803
4.342813684562276677070258 0.006882107373651871751185638 2.064068422811374592384936
4.335627369124553709411884 -0.01666666666666668725205191 2.071254738249102000935409
4.342813684562276677070258 -0.02645122595968145765010782 2.064068422811374592384936
4.32696914896339457357044 -0.0006497736556506450780745787 2.077618922619044905530927
4.325497244239959293565789 0.002294035791220300907200524 2.076796791551259957486764
4.328441053686825412682992 -0.03562736912455367888075131 2.064068422811375036474146
4.317488797734451821952462 -0.01961047611353763930885918 2.068788345045750265427387
4.31177438702015969340664 -0.03562736912455368581964521 2.062424160675808249010288
4.319782833525668053198387 0.01961047611353759073660186 2.070432607181317052891245
4.31030248229672352522357 0.03398310698898393544808982 2.061602029608023300966124
4.328441053686825412682992 0.03562736912455365806406959 2.064068422811374592384936
4.308008446505508182156063 0.001949320966949143196789151 2.059957767472456513502266
4.316016893011015653769391 -0.01536711935536814663261218 2.067966213977965317383223
4.308008446505507293977644 -0.0326835596776854156453318 2.059957767472456513502266
4.385931577188615371198921 -0.006882107373660334599663191 2.092813684562275788891839
4.378745261750893291718967 0.01207859508422546614136994 2.085627369124552377144255
4.385931577188615371198921 0.03103929754211126601504134 2.092813684562275788891839
4.371558946313169435882173 -0.03562736912455246457431812 2.078441053686825412682992
4.371558946313169435882173 0.03562736912455245763542422 2.078441053686825412682992
4.357186315437722612387006 0.00688210737365067652671069 2.064068422811374592384936
4.364372630875447356402219 -0.01207859508423511987751375 2.071254738249101556846199
4.357186315437723500565426 -0.03103929754212091454701472 2.064068422811374148295727
3.99244735862568989048782 0.00468415175414221320038255 2.112236793128452028156516
3.98489471725137978097564 -0.01666666666666666990481716 2.119789434502760805401067
3.99244735862568989048782 -0.02864918157919112834397524 2.112236793128452028156516
3.969789434502766667378637 -0.01354389883056057904131553 2.134894717251379248068588
3.962236793128463219204605 -0.03177194941527376054191123 2.142447358625689801669978
3.962236793128463219204605 0.004684151754152603326641913 2.142447358625689801669978
3.977342075877065674660571 -0.03489471725137985314013633 2.112236793128447143175208
3.962236793128452561063568 -0.03489471725137984620124243 2.127342075877066029931939
3.962236793128452561063568 0.03489471725137984620124243 2.127342075877066029931939
3.977342075877065674660571 0.03489471725137985314013633 2.112236793128447143175208
4.027268080485200130169687 0.0003815529335769627609226129 2.123113472448375560475142
4.026420204942782632429044 -0.002077304018412572551161022 2.124342900924370169946087
4.024600860974548055537525 -0.001561383918055484452958037 2.126162244892603858659186
4.02362939254873186456507 0.0003815529335769616767204404 2.126752160384843381990549
4.018277648076235664120759 -0.01912552361865620109693253 2.116200344057823201637802
4.011830842294516585866404 -0.03541063735174591192711446 2.107676234257701342045266
4.016076751174426640034198 -0.01860960351829911776921911 2.1191995190105301638539
4.008905662733695862698369 -0.03371488626691030582316344 2.110467046651744116303462
4.016458304108001087229241 0.01860960351829911429977216 2.118019688026056890350901
4.007934194307879671725914 0.03489471725138882512995409 2.111056962143983639634826
4.019973399161063554174689 0.01912552361865620803582644 2.115818791124248310353551
4.01098296675209908812576 0.03371488626691030582316344 2.108905662733695951516211
4.020821274703481051915333 -0.0166666666666666664353702 2.114589362648253700882606
4.013526593379344475920334 -0.02710142127811524317970715 2.107294681324126450761014
4.013526593379344475920334 0.006231912055218094895203684 2.107294681324126450761014
4.007552641374305224530872 0.004684151754151180853391612 2.112236793128456469048615
4.015105282748610449061744 -0.01354389883057097523910706 2.119789434502769687185264
4.007552641374305224530872 -0.03177194941529312699479703 2.112236793128456469048615
4.39232861368256877199201 0.00397168209540750723196556 2.111643068412838886160898
4.384657227365136300534232 -0.01666666666666664908813544 2.119314454730271801707886
4.39232861368256877199201 -0.02936165123792582737349832 2.111643068412838886160898
4.376138107479904171270846 -0.0003715731037958356838823981 2.126509680583700934164426
4.375290373912104513465238 0.001323894031803337029487566 2.126033520119697151073979
4.380554226662402683700748 -0.02028459648969250725403235 2.116181595786956748384
4.390034577891347211675566 -0.03465722736513663498891802 2.110319174381037221621682
4.374329142568392114753806 -0.003989502926821692982417566 2.124700715672187989468966
4.374329142568392114753806 0.003989502926821753697739226 2.124700715672187989468966
4.380554226662402683700748 0.02028459648969253847905492 2.116181595786956748384
4.390034577891347211675566 0.03465722736513664192781192 2.110319174381037221621682
4.385931577188614483020501 -0.006882107373663744198655223 2.107186315437721724208586
4.378745261750889739005288 0.01207859508422548869277513 2.11437263087544380368854
4.385931577188614483020501 0.03103929754211469729807682 2.107186315437721724208586
4.372520177656878281879926 0.0003715731037958966702546004 2.122891750760675044773507
4.373481409000591568769778 -0.002294035791222520052207168 2.124224555208184206378519
4.438356931587159159846578 -0.003971682095409316548551004 2.14232861368256788381359
4.430685545269726688388801 0.0140188786030602339366391 2.134657227365136300534232
4.438356931587158271668159 0.03200943930152976013570054 2.14232861368256788381359
4.423014158952295105109442 -0.03465722736513619783860207 2.126985841047703829076454
4.423014158952295105109442 0.03465722736513621171638988 2.126985841047703829076454
4.407671386317431938550726 0.003971682095407077020543518 2.111643068412838886160898
4.415342772634863521830084 -0.01401887860306245264796488 2.119314454730272245797096
4.407671386317431938550726 -0.03200943930153200833732541 2.111643068412839330250108
3.943337057898363084973425 0.01002234739019356758726875 2.166685289491831145625156
3.936674115796725548221957 -0.01666666666666666296592325 2.173348231593458912414008
3.943337057898363084973425 -0.02331098594313976007930123 2.166685289491831145625156
3.92334823159345091880823 -0.009985101739882283611304814 2.186674115796724215954328
3.916685289491813826145972 -0.02999255086994013358436817 2.193337057898361752705796
3.916685289491813826145972 0.01002234739017556809648202 2.193337057898361752705796
3.930011173695079129686292 -0.03667411579672451293898661 2.166685289491812937967552
3.916685289491804500272565 -0.03667411579672451293898661 2.180011173695078241507872
3.916685289491804500272565 0.03667411579672451987788051 2.180011173695078241507872
3.930011173695079129686292 0.03667411579672451293898661 2.166685289491812937967552
3.976769445238930167363378 0.0004161226417122352140912089 2.173646677402780724719378
3.97619681460074980705599 -0.001561383918074607177195468 2.174635430682674286373413
3.97374573140999132192519 -0.00334078246344189557642812 2.177086513873432771504213
3.971867278857414085280197 0.0004161226417122385751179436 2.178548843784297250891768
3.96807154258826599857457 -0.01864417322645350524878971 2.166510158670190921981202
3.96109153185213003212084 -0.03489471725140792790487154 2.157968764016001461669703
3.965204336755801861613691 -0.02042357177182079625010758 2.171885901682644615107165
3.958957517295895733866473 -0.03374945597504555583334707 2.162298299759296327238189
3.96562045939750840162219 0.02042357177182079625010758 2.168961241860949407112003
3.95707906474331894131069 0.03667411579677522237563636 2.163760629670161250714955
3.96921680386461339651305 0.01864417322645350871823666 2.166094036028484826061913
3.960518901213949227724243 0.03374945597504555583334707 2.158957517295895023323737
3.969789434502794200909648 -0.0166666666666666664353702 2.165105282748591708497088
3.9622367931284765418809 -0.02864918157915263829949026 2.157552641374295809839623
3.9622367931284765418809 0.004684151754180692836526667 2.157552641374295809839623
3.956662942101612845391401 0.01002234739024428396281241 2.166685289491856014620907
3.963325884203224624968698 -0.009985101739864277181624175 2.173348231593508650405511
3.956662942101612845391401 -0.02999255086997284006078424 2.166685289491856014620907
4.442939638748207187290973 0.007637832489242475306201463 2.164698193741034781822918
4.435879277496415085124681 -0.01666666666666668725205191 2.171758554992828216256839
4.442939638748207187290973 -0.02569550084409085236036852 2.164698193741034781822918
4.427357109432404236315506 -0.0003776694613555327891159241 2.177734778893758882389875
4.425895302620185489672622 0.002545944163081396982573068 2.17665064154289566999978
4.432620464367168722219503 -0.02053650486155185472814111 2.167277691732305111571577
4.441615744716404634573337 -0.0358792774964147714866769 2.162152249577954155057569
4.425422190334961314306383 -0.004247507656240699994154575 2.175799859796316404469962
4.425422190334961314306383 0.00424750765624062887049206 2.175799859796316404469962
4.432620464367168722219503 0.02053650486155180615588378 2.167277691732305111571577
4.441615744716404634573337 0.03587927749641474373110128 2.162152249577954155057569
4.438356931587158271668159 -0.0039716820954101977880768 2.157671386317431050372306
4.430685545269726688388801 0.0140188786030601905685522 2.165342772634862633651665
4.438356931587158271668159 0.03200943930153059974186291 2.157671386317431050372306
4.423487271237519280475681 0.0003776694613554613944028659 2.17386494069887348246084
4.423960383522743455841919 -0.001323894031803770493516126 2.174715722445453192079867
4.4853018062589633530024 -0.007637832489243781552978874 2.192939638748207187290973
4.478241445007171250836109 0.01157477834050396961473872 2.185879277496414196946262
4.4853018062589633530024 0.03078738917025172772135022 2.192939638748207187290973
4.471181083755377372312978 -0.0358792774964144176030878 2.178818916244621206601551
4.471181083755377372312978 0.03587927749641441066419389 2.178818916244620762512341
4.457060361251792279801975 0.007637832489242141371932338 2.164698193741034337733709
4.464120722503585270146687 -0.011574778340505610663147 2.17175855499282777216763
4.457060361251793167980395 -0.03078738917025336530031154 2.164698193741034337733709
3.893426164738226447070701 0.01055698842936457666763506 2.217130823691137564424025
3.886852329476452982959245 -0.0166666666666666594964763 2.223704658952907919911013
3.893426164738226447070701 -0.02277634490396876487672273 2.217130823691137564424025
3.873704658952902057933443 -0.009628674380434808915962819 2.236852329476452627687877
3.867130823691124597019098 -0.02981433719022139744447841 2.243426164738226091799334
3.867130823691124597019098 0.01055698842935177267365887 2.243426164738226091799334
3.880278494214670192974381 -0.0368523294764532549638858 2.217130823691125129926149
3.86713082369111882385937 -0.03685232947645324108609799 2.230278494214669393613804
3.86713082369111882385937 0.0368523294764532549638858 2.230278494214669393613804
3.880278494214669748885171 0.0368523294764532619027797 2.217130823691125129926149
3.92858806212596345375232 0.0004945593251164199979225122 2.221906497199151342414325
3.927164950556818912019708 -0.003340782463405760419061785 2.223824168093412101399053
3.923735061253547762305516 -0.00351899614313643666063669 2.227254057396683251113245
3.921728283519421598413146 0.0004945593251164108906242634 2.228766275805693197753499
3.919078896886041718516935 -0.02050200845518882972196018 2.215738114422634907896281
3.913839066353542506249141 -0.03667411579673912624954824 2.207157501426744161676652
3.915154448257656571996677 -0.0206802221349195042288116 2.222192440543914404571524
3.909075172321005542386274 -0.03382789265844970971741645 2.212594168464127264428498
3.915649007582770568802744 0.02068022213491954586217503 2.219168003725906057610473
3.907068394586879378493904 0.03685232947646981116474052 2.214106386873137211068752
3.921925120024319699751914 0.0205020084551888782942175 2.215243555097520911090214
3.912415954784397520427319 0.03382789265844973747299207 2.20907517232100447657217
3.923348231593464241484526 -0.01666666666666664214924154 2.213325884203260152105486
3.916685289491820487484119 -0.02331098594314314279007938 2.206662942101630164870585
3.916685289491820931573329 0.01002234739019019701955493 2.206662942101630164870585
3.906573835261765381687837 0.01055698842938112766431935 2.217130823691145558029802
3.913147670523530408104307 -0.009628674380422004921986634 2.223704658952924795300987
3.906573835261765381687837 -0.02981433719022515485552738 2.217130823691145558029802
4.48991921432305041150812 -0.002096942812339221140494061 2.242016157135389597954145
4.481935371458440897640685 0.01526870479177384540281359 2.2340323142707796399975
4.48991921432305041150812 0.03263435239588691194612124 2.242016157135389597954145
4.485301806258961576645561 -0.03587927749641505598132696 2.221181083755377372312978
4.479164926619986886180413 -0.0199115917671947896538942 2.229863907557433577721895
4.488072251097414699927413 -0.03403231427077973991757176 2.239470212972308083010375
4.479164926619986886180413 0.0199115917671947827150003 2.229863907557433577721895
4.488072251097414699927413 0.03403231427077972603978395 2.239470212972308083010375
4.4853018062589633530024 0.03587927749641504904243305 2.221181083755377372312978
4.485301806258962464823981 -0.007637832489244414727047605 2.207060361251792279801975
4.478241445007169474479269 0.01157477834050396961473872 2.214120722503584826057477
4.4853018062589633530024 0.03078738917025235569124852 2.207060361251792279801975
4.472104565368194784014122 0.0006989809374463945785063701 2.222803546305641475555603
4.473028046981012195715266 -0.002545944163081724845310028 2.224426008855905578798229
3.878910091815686023153376 0.0007821913451205183241687902 2.27187209952943414137394
3.877541689416683201585556 -0.003518996143126004033652166 2.274022693273557216286918
3.86823104935690631478451 -0.01510228397642815467705191 2.284115524678453912343912
3.860288811696131805462073 -0.03255114198821534160499525 2.292057762339227089398719
3.860288811696131805462073 0.002346574035359039189785335 2.292057762339227089398719
3.86959945175590735999549 -0.0209678541549131909615955 2.266080455612781818786061
3.864394018893130056113705 -0.03685232947645932649605172 2.257356026606887944296886
3.860288811696131361372863 -0.03411552467845385683276049 2.276173287017678070753846
3.860288811696130473194444 0.03411552467845385683276049 2.276173287017678070753846
3.872336256553905897703771 0.02096785415491318749214855 2.265298264267663785886953
3.863025616494127234545886 0.03411552467845385683276049 2.259506620351011463299074
3.873704658952908719271591 -0.01666666666666667337426411 2.263147670523540710973975
3.867130823691128149732776 -0.02277634490397548866491562 2.256573835261770355486988
3.867130823691128149732776 0.01055698842935783900165436 2.256573835261770355486988
4.490614582200051607685509 -0.001262501359936690770169321 2.291877083559989536354351
4.482491665760041321675544 0.01582499909337553578581037 2.283754167119978806255176
4.490614582200051607685509 0.03291249954668776234179006 2.291877083559989536354351
4.489919214323049523329701 -0.03403231427077978155093518 2.273951528593830317959146
4.482074445033839893426375 -0.01778648139075868217506837 2.282495278820486195314743
4.49033643504925095157887 -0.03375416711997888952190294 2.29117810262254284481287
4.482074445033839893426375 0.01778648139075868217506837 2.282495278820486195314743
4.49033643504925095157887 0.03375416711997888952190294 2.29117810262254284481287
4.489919214323049523329701 0.03403231427077978155093518 2.273951528593830317959146
4.489919214323049523329701 -0.002096942812339276651645292 2.257983842864609957956645
4.481935371458439121283845 0.01526870479177384540281359 2.265967685729219915913291
4.489919214323049523329701 0.03263435239588696745727248 2.257983842864609957956645
4.47409060216923037955894 0.0004208337866455636442665489 2.274511435955876237358098
4.474229675744631151701469 -0.0006989809374464526917428153 2.275071343317922156757049
3.876019872329260707033427 0.0004753619682753048702322785 2.324455489639015048908277
3.875866457640837481335438 -0.0007821913451223754540700406 2.325084266295713852912286
3.867617390603216520617025 -0.0157159427301187121228665 2.33380869530160861557988
3.859521738254019229685809 -0.03285797136506070359462939 2.341904347650804130154256
3.859521738254019229685809 0.001426085904823302333982449 2.341904347650804130154256
3.867770805291639746315013 -0.01792421998006436811845532 2.31698861394651700607028
3.859981982319287574512146 -0.03411552467845568870075112 2.308417599629045913189884
3.8595217382540187855966 -0.03380869530160868219326176 2.325713042952410880559455
3.8595217382540187855966 0.03380869530160865443768614 2.325713042952410880559455
3.868077634668484865443361 0.01792421998006431954619799 2.3165132519782432041211
3.859828567630863904724947 0.03380869530160865443768614 2.309046376285744717193893
3.868231049356908535230559 -0.01666666666666668725205191 2.315884475321544400117091
3.860288811696133137729703 -0.0309867592979724860990931 2.307942237660772111240703
3.860288811696133137729703 0.002346574035360842001157744 2.307942237660772111240703
4.490749269537556820353075 -0.001100876554931703001430354 2.341850146092488316185154
4.482599415630046379988016 0.0159327489633788663137004 2.333700292184976987641676
4.490749269537556820353075 0.03296637448168943801407593 2.341850146092488316185154
4.490614582200052495863929 -0.03375416711997890339969075 2.324368749320031568572631
4.482518603227543252387477 -0.01745445930495614916821978 2.332885562079186847483925
4.490695394602554735286049 -0.03370029218497724160519269 2.341429312305843168928732
4.482518603227543252387477 0.01745445930495614569877283 2.332885562079186847483925
4.490695394602554735286049 0.03370029218497723466629878 2.341429312305843168928732
4.490614582200052495863929 0.03375416711997890339969075 2.324368749320031568572631
4.490614582200052495863929 -0.001262501359936702262712349 2.308122916440010996552701
4.482491665760042209853964 0.01582499909337553578581037 2.316245832880021282562666
4.490614582200052495863929 0.03291249954668777621957787 2.308122916440010996552701
4.474395686787532966377512 0.0003669588516438998439944674 2.32476264563917611738475
4.474422624255034008911025 -0.0004208337866455772510038136 2.325156541958320666196869
3.875767903952848758564187 0.0005850839691477055775487015 2.374817180016298046041356
3.875822764953285037847763 -0.0004753619682754970992774601 2.375347402985009903630953
3.867836834604960305483701 -0.0154964987283746583740518 2.383918417302480996511349
3.859796043256198849746852 -0.03274824936418902626700245 2.391959208651240675891358
3.859796043256198849746852 0.001755251907439715156750148 2.391959208651240675891358
3.867781973604524026200124 -0.01772711260408987160586136 2.367306611636248447894104
3.859631460254890900074543 -0.03380869530160882097113983 2.358680736318341075730132
3.859796043256198849746852 -0.03391841730248103259359738 2.37587762595371998486371
3.859796043256198849746852 0.03391841730248103259359738 2.37587762595371998486371
3.867672251603652355811391 0.01772711260408986466696746 2.36672152766710297555619
3.859686321255327179358119 0.03391841730248103259359738 2.359210959287052933319728
3.867617390603215632438605 -0.0166666666666666664353702 2.366191304698391117966594
3.859521738254019229685809 -0.0319072474285098592328147 2.358095652349195603392218
3.859521738254019229685809 0.001426085904823468650595708 2.358095652349195603392218
4.490700964817657236949344 -0.001158842218810659466937674 2.391859807036468499319426
4.482560771854125825086612 0.01589410518745957776043376 2.383719614072936643367484
4.490700964817657236949344 0.03294705259372979200271914 2.391859807036468499319426
4.490749269537555932174655 -0.03370029218497723466629878 2.374449561722534074448276
4.482589754686064686950431 -0.0174199062579141125683968 2.382976035425668825951107
4.490720286705617070310836 -0.03371961407293688761654948 2.3914928481848241048624
4.482589754686064686950431 0.01741990625791415420176023 2.382976035425668825951107
4.490720286705617070310836 0.03371961407293689455544339 2.3914928481848241048624
4.490749269537555932174655 0.0337002921849772554829805 2.374449561722534074448276
4.490749269537555932174655 -0.00110087655493169606253645 2.35814985390751141736132
4.482599415630044603631177 0.01593274896337889406927601 2.366299707815022745904798
4.490749269537555932174655 0.03296637448168945883075764 2.35814985390751141736132
4.474439900778553358406953 0.0003862807396035923134143542 2.374826181518157497407628
4.474430239834573441726207 -0.0003669588516438734436715674 2.37520280131378136445619
3.87639999112741051590092 0.001629814316527336288259464 2.425229823189116284964939
3.876922356301100158759709 -0.0005850839691476531021635532 2.426337272331953620607692
3.869926295299715324205181 -0.0134070380336229789952629 2.434963147649860992771664
3.862407869124640402702653 -0.03170351901681695699908303 2.442481573824930585203674
3.862407869124640402702653 0.004889442949570979926599001 2.442481573824930585203674
3.869403930126026569524811 -0.01888156495234163262386673 2.418818846156879587283584
3.860840773603575915018382 -0.03391841730248100483802176 2.409670605665282572260821
3.862407869124641734970282 -0.03496314764986062362250863 2.427444721474786959447556
3.862407869124641734970282 0.03496314764986065137808424 2.427444721474786959447556
3.868359199778649504253281 0.01888156495234167425723015 2.41718903184035660558493
3.861363138777266001966382 0.03496314764986064443919034 2.410778054808120351992784
3.867836834604960305483701 -0.01666666666666664214924154 2.416081582697519269942177
3.859796043256198405657642 -0.0315780814258936198823946 2.408040791348759590562167
3.859796043256198405657642 0.001755251907439705398930596 2.408040791348759590562167
4.490332147540682328212824 -0.001601422951180988488856238 2.441933570491862770523994
4.482265718032546253368764 0.01559905136587932950043012 2.433867140983726251590724
4.490332147540682328212824 0.03279952568293967307688774 2.441933570491862770523994
4.490700964817657236949344 -0.0337196140729369153721251 2.424420578890594590859564
4.48248700839873137624636 -0.01758675505666391220005451 2.433020816049124679381066
4.490479674451473002250168 -0.03386714098372701348127478 2.441547289752259430883896
4.48248700839873137624636 0.01758675505666386015835023 2.433020816049124679381066
4.490479674451473002250168 0.03386714098372698572569917 2.441547289752259430883896
4.490700964817657236949344 0.03371961407293687373876168 2.424420578890594146770354
4.490700964817657236949344 -0.001158842218810685054108944 2.40814019296353132304489
4.482560771854125825086612 0.01589410518745952918817643 2.416280385927062734907622
4.490700964817657236949344 0.03294705259372976424714352 2.40814019296353132304489