/*--------------------------------*- C++ -*----------------------------------*\
| =========                 |                                                 |
| \\      /  F ield         | OpenFOAM: The Open Source CFD Toolbox           |
|  \\    /   O peration     | Version:  v2012                                 |
|   \\  /    A nd           | Website:  www.openfoam.com                      |
|    \\/     M anipulation  |                                                 |
\*---------------------------------------------------------------------------*/
FoamFile
{
    version     2.0;
    format      ascii;
    class       volScalarField;
    location    "1.9";
    object      alpha.water;
}
// * * * * * * * * * * * * * * * * * * * * * * * * * * * * * * * * * * * * * //

dimensions      [0 0 0 0 0 0 0];


internalField   nonuniform List<scalar> 
96000
(
0
0
0
0
0
0
0
0
0
0
0
0
0
0
0
0
0
0
0
0
0
0
0
0
0
0
0
0
0
0
0
0
0
0
0
0
0
0
0
0
0
0
0
0
0
0
0
0
0
0
0
0
0
0
0
0
0
0
0
0
0
0
0
0
0
0
0
0
0
0
0
0
0
0
0
0
0
0
0
0
0
0
0
0
0
0
0
0
0
0
0
0
0
0
0
0
0
0
0
0
0
0
0
0
0
0
0
0
0
0
0
0
0
0
0
0
0
0
0
0
0
0
0
0
0
0
0
0
0
0
0
0
0
0
0
0
0
0
0
0
0
0
0
0
0
0
0
0
0
0
0
0
0
0
0
0
0
0
0
0
0
0
0
0
0
0
0
0
0
0
0
0
0
0
0
0
0
0
0
0
0
0
0
0
0
0
0
0
0
0
0
0
0
0
0
0
0
0
0
0
0
0
0
0
0
0
0
0
0
0
0
0
0
0
0
0
0
0
0
0
0
0
0
0
0
0
0
0
0
0
0
0
0
0
0
0
0
0
0
0
0
0
0
0
0
0
0
0
0
0
0
0
0
0
0
0
0
0
0
0
0
0
0
0
0
0
0
0
0
0
0
0
0
0
0
0
0
0
0
0
0
0
0
0
0
0
0
0
0
0
0
0
0
0
0
0
0
0
0
0
0
0
0
0
0
0
0
0
0
0
0
0
0
0
0
0
0
0
0
0
0
0
0
0
0
0
0
0
0
0
0
0
0
0
0
0
0
0
0
0
0
0
0
0
0
0
0
0
0
0
0
0
0
0
0
0
0
0
0
0
0
0
0
0
0
0
0
0
0
0
0
0
0
0
0
0
0
0
0
0
0
0
0
0
0
0
0
0
0
0
0
0
0
0
0
0
0
0
0
0
0
0
0
0
0
0
0
0
0
0
0
0
0
0
0
0
0
0
0
0
0
0
0
0
0
0
0
0
0
0
0
0
0
0
0
0
0
0
0
0
0
0
0
0
0
0
0
0
0
0
0
0
0
0
0
0
0
0
0
0
0
0
0
0
0
0
0
0
0
0
0
0
0
0
0
0
0
0
0
0
0
0
0
0
0
0
0
0
0
0
0
0
0
0
0
0
0
0
0
0
0
0
0
0
0
0
0
0
0
0
0
0
0
0
0
0
0
0
0
0
0
0
0
0
0
0
0
0
0
0
0
0
0
0
0
0
0
0
0
0
0
0
0
0
0
0
0
0
0
0
0
0
0
0
0
0
0
0
0
0
0
0
0
0
0
0
0
0
0
0
0
0
0
0
0
0
0
0
0
0
0
0
0
0
0
0
0
0
0
0
0
0
0
0
0
0
0
0
0
0
0
0
0
0
0
0
0
0
0
0
0
0
0
0
0
0
0
0
0
0
0
0
0
0
0
0
0
0
0
0
0
0
0
0
0
0
0
0
0
0
0
0
0
0
0
0
0
0
0
0
0
0
0
0
0
0
0
0
0
0
0
0
0
0
0
0
0
0
0
0
0
0
0
0
0
0
0
0
0
0
0
0
0
0
0
0
0
0
0
0
0
0
0
0
0
0
0
0
0
0
0
0
0
0
0
0
0
0
0
0
0
0
0
0
0
0
0
0
0
0
0
0
0
0
0
0
0
0
0
0
0
0
0
0
0
0
0
0
0
0
0
0
0
0
0
0
0
0
0
0
0
0
0
0
0
0
0
0
0
0
0
0
0
0
0
0
0
0
0
0
0
0
0
0
0
0
0
0
0
0
0
0
0
0
0
0
0
0
0
0
0
0
0
0
0
0
0
0
0
0
0
0
0
0
0
0
0
0
0
0
0
0
0
0
0
0
0
0
0
0
0
0
0
0
0
0
0
0
0
0
0
0
0
0
0
0
0
0
0
0
0
0
0
0
0
0
0
0
0
0
0
0
0
0
0
0
0
0
0
0
0
0
0
0
0
0
0
0
0
0
0
0
0
0
0
0
0
0
0
0
0
0
0
0
0
0
0
0
0
0
0
0
0
0
0
0
0
0
0
0
0
0
0
0
0
0
0
0
0
0
0
0
0
0
0
0
0
0
0
0
0
0
0
0
0
0
0
0
0
0
0
0
0
0
0
0
0
0
0
0
0
0
0
0
0
0
0
0
0
0
0
0
0
0
0
0
0
0
0
0
0
0
0
0
0
0
0
0
0
0
0
0
0
0
0
0
0
0
0
0
0
0
0
0
0
0
0
0
0
0
0
0
0
0
0
0
0
0
0
0
0
0
0
0
0
0
0
0
0
0
0
0
0
0
0
0
0
0
0
0
0
0
0
0
0
0
0
0
0
0
0
0
0
0
0
0
0
0
0
0
0
0
0
0
0
0
0
0
0
0
0
0
0
0
0
0
0
0
0
0
0
0
0
0
0
0
0
0
0
0
0
0
0
0
0
0
0
0
0
0
0
0
0
0
0
0
0
0
0
0
0
0
0
0
0
0
0
0
0
0
0
0
0
0
0
0
0
0
0
0
0
0
0
0
0
0
0
0
0
0
0
0
0
0
0
0
0
0
0
0
0
0
0
0
0
0
0
0
0
0
0
0
0
0
0
0
0
0
0
0
0
0
0
0
0
0
0
0
0
0
0
0
0
0
0
0
0
0
0
0
0
0
0
0
0
0
0
0
0
0
0
0
0
0
0
0
0
0
0
0
0
0
0
0
0
0
0
0
0
0
0
0
0
0
0
0
0
0
0
0
0
0
0
0
0
0
0
0
0
0
0
0
0
0
0
0
0
0
0
0
0
0
0
0
0
0
0
0
0
0
0
0
0
0
0
0
0
0
0
0
0
0
0
0
0
0
0
0
0
0
0
0
0
0
0
0
0
0
0
0
0
0
0
0
0
0
0
0
0
0
0
0
0
0
0
0
0
0
0
0
0
0
0
0
0
0
0
0
0
0
0
0
0
0
0
0
0
0
0
0
0
0
0
0
0
0
0
0
0
0
0
0
0
0
0
0
0
0
0
0
0
0
0
0
0
0
0
0
0
0
0
0
0
0
0
0
0
0
0
0
0
0
0
0
0
0
0
0
0
0
0
0
0
0
0
0
0
0
0
0
0
0
0
0
0
0
0
0
0
0
0
0
0
0
0
0
0
0
0
0
0
0
0
0
0
0
0
0
0
0
0
0
0
0
0
0
0
0
0
0
0
0
0
0
0
0
0
0
0
0
0
0
0
0
0
0
0
0
0
0
0
0
0
0
0
0
0
0
0
0
0
0
0
0
0
0
0
0
0
0
0
0
0
0
0
0
0
0
0
0
0
0
0
0
0
0
0
0
0
0
0
0
0
0
0
0
0
0
0
0
0
0
0
0
0
0
0
0
0
0
0
0
0
0
0
0
0
0
0
0
0
0
0
0
0
0
0
0
0
0
0
0
0
0
0
0
0
0
0
0
0
0
0
0
0
0
0
0
0
0
0
0
0
0
0
0
0
0
0
0
0
0
0
0
0
0
0
0
0
0
0
0
0
0
0
0
0
0
0
0
0
0
0
0
0
0
0
0
0
0
0
0
0
0
0
0
0
0
0
0
0
0
0
0
0
0
0
0
0
0
0
0
0
0
0
0
0
0
0
0
0
0
0
0
0
0
0
0
0
0
0
0
0
0
0
0
0
0
0
0
0
0
0
0
0
0
0
0
0
0
0
0
0
0
0
0
0
0
0
0
0
0
0
0
0
0
0
0
0
0
0
0
0
0
0
0
0
0
0
0
0
0
0
0
0
0
0
0
0
0
0
0
0
0
0
0
0
0
0
0
0
0
0
0
0
0
0
0
0
0
0
0
0
0
0
0
0
0
0
0
0
0
0
0
0
0
0
0
0
0
0
0
0
0
0
0
0
0
0
0
0
0
0
0
0
0
0
0
0
0
0
0
0
0
0
0
0
0
0
0
0
0
0
0
0
0
0
0
0
0
0
0
0
0
0
0
0
0
0
0
0
0
0
0
0
0
0
0
0
0
0
0
0
0
0
0
0
0
0
0
0
0
0
0
0
0
0
0
0
0
0
0
0
0
0
0
0
0
0
0
0
0
0
0
0
0
0
0
0
0
0
0
0
0
0
0
0
0
0
0
0
0
0
0
0
0
0
0
0
0
0
0
0
0
0
0
0
0
0
0
0
0
0
0
0
0
0
0
0
0
0
0
0
0
0
0
0
0
0
0
0
0
0
0
0
0
0
0
0
0
0
0
0
0
0
0
0
0
0
0
0
0
0
0
0
0
0
0
0
0
0
0
0
0
0
0
0
0
0
0
0
0
0
0
0
0
0
0
0
0
0
0
0
0
0
0
0
0
0
0
0
0
0
0
0
0
0
0
0
0
0
0
0
0
0
0
0
0
0
0
0
0
0
0
0
0
0
0
0
0
0
0
0
0
0
0
0
0
0
0
0
0
0
0
0
0
0
0
0
0
0
0
0
0
0
0
0
0
0
0
0
0
0
0
0
0
0
0
0
0
0
0
0
0
0
0
0
0
0
0
0
0
0
0
0
0
0
5.237553063227279142583153e-62
1.009569963054913871999431e-59
9.507579829028789584485363e-58
5.898604795085391986762604e-56
2.695381507441726689457687e-54
9.091001746308849007917756e-53
2.308274458687549079842851e-51
5.264147033222492226520634e-50
1.423220936919650436276459e-48
3.992302665165907931203209e-47
1.306919137066793411843579e-45
2.276928110914862975989708e-44
8.448629811709202673207664e-36
9.853229971272713355519731e-36
1.078139971141297442234619e-35
1.166450551552801449317419e-35
1.258371227886890653981302e-35
1.356050035091409297568268e-35
1.460333252039400595690393e-35
1.571782494321148118972422e-35
1.690914846918737266419944e-35
1.818261805400233985102106e-35
1.954384965099069913754952e-35
2.099881169304567157711061e-35
2.255386039532552446496389e-35
2.421579195377934386869325e-35
2.599186708796790229392614e-35
2.788971095639057870016814e-35
2.991727518267155947930786e-35
3.208345962335847174768548e-35
3.439898105446793854555449e-35
3.687450574133355683704526e-35
3.951524031867638619862188e-35
4.232364991678127978108172e-35
4.532466100765468957423706e-35
4.858392501377845056779209e-35
5.213406762390240133916624e-35
5.581572914042423030879381e-35
5.937651547952701694788334e-35
6.305606116487903117901981e-35
6.814214624637970638442103e-35
7.688686164082731839015195e-35
8.734431150945651484961638e-35
9.125207979557075232922926e-35
9.142263664049070245467437e-35
9.13768016412615701748867e-35
9.118565635054362042448178e-35
9.074911524146865346083463e-35
8.992685871247535251796057e-35
8.838233834055004941499533e-35
8.56890479063869585933835e-35
8.296087773702177203588065e-35
8.213191201431999406088468e-35
8.209390562024448073780927e-35
8.209505411418735047816165e-35
8.210498112068044566829889e-35
8.213477077782430815274359e-35
8.215786794006300084646446e-35
8.215646820297629945270249e-35
8.210626174294692751101126e-35
8.187447589344914688621757e-35
8.125548735461601358732857e-35
8.00729865814596219442418e-35
7.82917671739765370141749e-35
7.601423992063669208208097e-35
7.338362506287039909304674e-35
7.053616046588773888451988e-35
6.761948767253069869583834e-35
6.475649342378418755984745e-35
6.196265308391064243118013e-35
5.891924827863672882511569e-35
5.558167251701073307828228e-35
4.507317963280706939556117e-35
6.596417203068151856141753e-35
4.286172472283205366671228e-34
7.504757034704132867698437e-33
1.014385092018221018844372e-31
1.003851379782947793569271e-30
7.616661497824378023190859e-30
4.573731290856943422483441e-29
2.210270255139235435229023e-28
8.550903709750555780981877e-28
2.465400197345368081997213e-27
4.374392668116626674716072e-27
4.796198173007601853772404e-27
4.597861033576884354571817e-27
3.583597039349007160517692e-27
1.659841003438346264733003e-27
2.799617677992696559242782e-28
9.357915600220939797403117e-30
3.343620749301222805739378e-32
7.174080845404232961749725e-36
1.968781463941692166902132e-40
5.059109962401530968321852e-45
1.277985513153014786144243e-49
3.349902062728909327226894e-54
9.156916998514675164924888e-59
2.501525890972280328243321e-63
6.642828865187818744350476e-68
1.728658021745172708628639e-72
4.496661830985861167422424e-77
1.180284697007396359233676e-81
3.112210431202110209571137e-86
8.168641825068243148011367e-91
2.125345423853251800026124e-95
5.495398359818946808427609e-100
1.418218367366154578580287e-104
3.657860058187230375863379e-109
9.414549718437775984784483e-114
2.412413849199868117263248e-118
6.149835468042374360807375e-123
1.560943213092460861729223e-127
3.948543034498343804050972e-132
9.955435546553932807969158e-137
2.500178667800500674450286e-141
6.248663426343069117587528e-146
1.701848056546799454597559e-149
5.620339419067967886476866e-150
1.885491091214622546884196e-150
6.428087393255184204403792e-151
2.218033320017275335478057e-151
7.494217915520787622895041e-152
2.44954384082055948966102e-152
7.722536769760482570039454e-153
2.343813646533297112505863e-153
6.838815962563933277355837e-154
1.917046728272578076030335e-154
5.161556836744900011402168e-155
1.334910515008182947896438e-155
3.31709976634961718518769e-156
7.92265431745871111338338e-157
1.81970126051765663459012e-157
4.021470929264669205676752e-158
8.55619720923227026182032e-159
1.753695460311952467440892e-159
3.464801608554542110748139e-160
6.602838708027305980319382e-161
1.214481612448223473972112e-161
2.157449956897047213977534e-162
3.70393476243227776112969e-163
6.149561177164109462374029e-164
9.880330867956756651830282e-165
1.537227134414972200664895e-165
2.31762080519614853511988e-166
3.388372978432908322489488e-167
4.807308116802589593199804e-168
6.623780212606614861381996e-169
8.870577907655126619457801e-170
1.15560839744579876398791e-170
1.465817610933840980696525e-171
1.812134305553204871450748e-172
2.18581479137328003004064e-173
2.575557180432076798907348e-174
2.968613708533172903005923e-175
3.352345001739004062676299e-176
3.716262417733018637220026e-177
4.05492651186862869197844e-178
4.37290566899213222158289e-179
4.694958070946170644216522e-180
5.089056094530630425180902e-181
5.719896534078182372953783e-182
6.972891031329961250473989e-183
9.737926962515663954371629e-184
1.604953378619543700646044e-184
3.051062910459098008431153e-185
6.341510267821923724617176e-186
1.375029674110201992777164e-186
3.023762791267344434467881e-187
6.648488015191341980765724e-188
1.451979951893975690048145e-188
3.140227678246243116992212e-189
6.71650892362739880333275e-190
1.419877480772446508958802e-190
2.966007812596052324637938e-191
6.12159181013663059675721e-192
1.248288759987572129961231e-192
2.514938762800022730847508e-193
5.006242992573759240609723e-194
9.84652243092752974870814e-195
1.913623616497849017433949e-195
3.674939340908635323246953e-196
6.973995844288032005997345e-197
1.307883793248496805041515e-197
2.423989801667850825493911e-198
4.440018065314687092921942e-199
8.038019624148035543299557e-200
1.438274104001178492949065e-200
2.543784003120449136438316e-201
4.447154749802464423424623e-202
7.685372203117363818350491e-203
1.312940855802846110954345e-203
2.217377669192595165400231e-204
3.702241820646055678837314e-205
6.111341486006519334554654e-206
9.974031024923445983207128e-207
1.609469276326229769476318e-207
2.567955990279354749007055e-208
4.051353552494741030788626e-209
6.320258506594132169012945e-210
9.750026301071497139918835e-211
1.487396561070321807274816e-211
2.243940125019443977254041e-212
3.347899407072489148366931e-213
4.939955022649817871143443e-214
7.209008497897431736413748e-215
1.04050026808615707414351e-215
1.485370585243581685107851e-216
2.097321145572780089476324e-217
2.92916447341570597962664e-218
4.046524614008101746097068e-219
5.529562969259910436262084e-220
7.474461363038010316904829e-221
9.994462376965684804999004e-222
1.32202322102495122532278e-222
1.729928701062143633722277e-223
2.239421607033602552284445e-224
2.867945086177290124092611e-225
3.633637328923009545413502e-226
4.554663379152039147664835e-227
5.648366140343132317076422e-228
6.930249131112511891707537e-229
8.412820422749537398418389e-230
1.010434548568613176413866e-230
1.200757482491053049521991e-231
1.411852839725975907887805e-232
1.642543079611010515231347e-233
1.890789701975478105161996e-234
2.153646656588759026196406e-235
2.427257244135031005200616e-236
2.706901107861553324778592e-237
2.987094972854696129147076e-238
3.261747133001112432800029e-239
3.524361582044770532804334e-240
3.768283483517815621234156e-241
3.986973772292287366491591e-242
4.174297482504076135833198e-243
4.324808267253246852372243e-244
4.434010793663401121063407e-245
4.498583417563156253977302e-246
4.51654577090880714931141e-247
4.487359480805568942829365e-248
4.411954884489437173545777e-249
4.292681896897116255298171e-250
4.13318864211705025704023e-251
3.938236575416841036354168e-252
3.713465135673932762230262e-253
3.465122105608189526954854e-254
3.199777574663893098413564e-255
2.924039603482445967909435e-256
2.644288441426837252583982e-257
2.366443651312358595575313e-258
2.095775059592400321554977e-259
1.836764454931051235311557e-260
1.593020804467601843475983e-261
1.367247823256318613298654e-262
1.161259335842364119213089e-263
9.760352394987030274395973e-265
8.118091447580752492761912e-266
6.681779569669046219252541e-267
5.442237082774637084435049e-268
4.386387172761462979935326e-269
3.498464616040935921662912e-270
2.761121955739217737245756e-271
2.156391319299556047460661e-272
1.666477597977711638190886e-273
1.274374513713925658591961e-274
9.643082314858881648537624e-276
7.220231271494746273506032e-277
5.349309811661851657199187e-278
3.921484480998567609803224e-279
2.844485884031398830663671e-280
2.041511118663714587110253e-281
1.449733837474181924518507e-282
1.018607706417610780263356e-283
7.081106248386857157332967e-285
4.870390322226168961334153e-286
3.314268395021696013455608e-287
2.231337645059430792769555e-288
1.486239458458290932915377e-289
9.793773017643127322639199e-291
6.384701718683071602515756e-292
4.117672490389227079685795e-293
2.627087731069782282151187e-294
1.658057584971179969221664e-295
1.035183315388901547811281e-296
6.393189650735538889953359e-298
3.905622964738605265391196e-299
2.360069873751759848156765e-300
1.410620899624300251547808e-301
8.339412115123744831580659e-303
4.876280251536203557972982e-304
2.820058200888768901672487e-305
1.612989090456863072645107e-306
9.124228224472197858134307e-308
5.104336020866814862720444e-309
2.823888080360692466531558e-310
1.544924108091960898451966e-311
8.358036035653648468383593e-313
4.47120257760150511317683e-314
2.365117359998825317535075e-315
1.237012611810466800261804e-316
6.39684578033912185620994e-318
3.269924070435706127978203e-319
1.655119913568175922991505e-320
9.090807883478936412848866e-322
0
0
0
0
0
0
0
0
0
0
0
0
0
0
0
0
0
0
0
0
0
0
0
0
0
0
0
0
0
0
0
0
0
0
0
0
0
0
0
0
0
0
0
0
0
0
0
0
0
0
0
0
0
0
0
0
0
0
0
0
0
0
0
0
0
0
0
0
0
0
0
0
0
0
0
0
0
0
0
0
0
0
0
0
0
0
0
0
0
0
0
0
0
0
1.239038303687709345884222e-62
8.843507769944527780632544e-60
1.452454559045706760620343e-57
1.271496897167070720576734e-55
7.512231030747243023099006e-54
3.355969701334993275685406e-52
1.165887660396069778405884e-50
3.199512520393011206652824e-49
7.253696371956923664338328e-48
1.595462335508297384681175e-46
3.532340519773787343026991e-45
9.994845055896005113794092e-44
1.719450301208559214812694e-42
3.047858171134747221566449e-34
3.841828902809630058471862e-34
4.454699249288349937503848e-34
5.080888506160262286619668e-34
5.763241703546360107144604e-34
6.516567312152636069704211e-34
7.349685380182431783221242e-34
8.270436493218215211329143e-34
9.286912645658272365280269e-34
1.040779395610258259865567e-33
1.164247219716830325715998e-33
1.300112562047745047599377e-33
1.449479003913680301768963e-33
1.613543723670087256418398e-33
1.793603684961016438837911e-33
1.991058262138372145213584e-33
2.207420344366079328823278e-33
2.444353827008807302157295e-33
2.703696487283103154280606e-33
2.987357012830736122355822e-33
3.29716174090277981546026e-33
3.63516838922434828025025e-33
4.004660032998794587506188e-33
4.410163789897837748481826e-33
4.853979968992728444927547e-33
5.33199986720967913912686e-33
5.839892072489785155963233e-33
6.39248995171564793833314e-33
7.033854470106703705061713e-33
7.807076756904384855300836e-33
8.685729413128605883640324e-33
9.568005872698759717731323e-33
1.035937729888850601473858e-32
1.100336721194316779236099e-32
1.148495839825947163859935e-32
1.186056520768645869209619e-32
1.226830656613973642497325e-32
1.297442677386063052251614e-32
1.43475039732298357092564e-32
1.576530295057592141943613e-32
1.611071789398536023297244e-32
1.611537367192619013400174e-32
1.610696783882991253790726e-32
1.60652571993645406440537e-32
1.593914518099789329619177e-32
1.565515220081093925714763e-32
1.523334315914675249497528e-32
1.490314299971067804625998e-32
1.47631097487889354326905e-32
1.469528129381002981117717e-32
1.462418366456475953235546e-32
1.450475142396828627431078e-32
1.428602636777798982743628e-32
1.391228915313708603142226e-32
1.334229226276684666807801e-32
1.257074726562109970856296e-32
1.162230960530922883621543e-32
1.052788112605992203406973e-32
9.245828015809141737115529e-33
7.881725646417898595292161e-33
5.493591986910338561674146e-33
9.103514836100463686872912e-33
8.951652153744414163513984e-32
1.575371346224745222286579e-30
2.001913776801418704441896e-29
1.853694807664577785187094e-28
1.313645684746306888856238e-27
7.344112813357685527652179e-27
3.278262848259909608993529e-26
1.140525140904078378893866e-25
2.72522862023392485505804e-25
3.756716436266425645509922e-25
3.777517967466709051670103e-25
3.387631219320926084509557e-25
2.173802606210894680077132e-25
6.770687465322932090961682e-26
5.907105607131421073750644e-27
7.845777658482928369946619e-29
8.796821292400234898558962e-32
4.894990817881376373225924e-36
1.281048638645243549473531e-40
3.680361373176191473544517e-45
1.056331595588181632412141e-49
2.901685501108243209304892e-54
7.794890528017645773258499e-59
2.081949137321695357058715e-63
5.593345616064026669324163e-68
1.512535833591615845218219e-72
4.087819665214755520503939e-77
1.097760655195666084449687e-81
2.926372150545617983629561e-86
7.760383239273565306082883e-91
2.052145490391340059944303e-95
5.416474932040452624558019e-100
1.426062675345967778616634e-104
3.742252554471443746809522e-109
9.777761716645537472813837e-114
2.544385847613374781101102e-118
6.598137589130357691956934e-123
1.705472697671202364041295e-127
4.392705601002637137554444e-132
1.126810927084719643313562e-136
2.877602511964203349306169e-141
7.31621536736654756105416e-146
2.636885387955563752129449e-149
9.734901269846628670840252e-150
3.776882091700266101835372e-150
1.457710206511181921022351e-150
5.508950660692450716563552e-151
1.999741931617608418817879e-151
6.932566653944549877323761e-152
2.292850892346053145921245e-152
7.23421503472895341100052e-153
2.178380868518233300666376e-153
6.265126722762393704272103e-154
1.722516448931502797412721e-154
4.531457255394904894733543e-155
1.141726319869202857167844e-155
2.757669579981490371941924e-156
6.391142173846254426798267e-157
1.422531134251703536207381e-157
3.043499469594825916786321e-158
6.264464052157437384599106e-159
1.241524962090289241417559e-159
2.371050935893415397872691e-160
4.36702776689141024505743e-161
7.763018279111356564815227e-162
1.332940327140501130823084e-162
2.212381195250176322615819e-163
3.552320219438495886682605e-164
5.52208908707477980909431e-165
8.317167085403392891424969e-166
1.214725738447496451928957e-166
1.72176577325682769978538e-167
2.370508635306481784345997e-168
3.173076145693487319884263e-169
4.133498612214844342539222e-170
5.245833955211032048183739e-171
6.493455390831753771230452e-172
7.849938669697748324838662e-173
9.281911165130338089220942e-174
1.075437155445927635606195e-174
1.223979906864284369541894e-175
1.373482082529055043997103e-176
1.529448161495094296973777e-177
1.710925214362344381647681e-178
1.968520358048433405051036e-179
2.426898194400749789077191e-180
3.384358851137921111578175e-181
5.543403436696561717110341e-182
1.053746376049940662016374e-182
2.211779764461817059209913e-183
4.879147408230681778057264e-184
1.096048633008650242898873e-184
2.466514354887962302411137e-185
5.517559140533048995722684e-186
1.222632350655349018943857e-186
2.679473840173053261838692e-187
5.803733559779494602499222e-188
1.242055315099261485031906e-188
2.62602875614708262625246e-189
5.484903339830972661818129e-190
1.131755383554852866198058e-190
2.307075213162318473164754e-191
4.646353060361350131666444e-192
9.245315322847568795325924e-193
1.8176455356010034126914e-193
3.530969920292798617722748e-194
6.777910632349153325567795e-195
1.285684299464499860551792e-195
2.410067142409925832148267e-196
4.464776433288315626967443e-197
8.174578062056320556915383e-198
1.479261900625752870933454e-198
2.645804065367501894382511e-199
4.677584776383926610146776e-200
8.174387753343295977517885e-201
1.412135163318906123225494e-201
2.411583641397012794016222e-202
4.071464513281658218166124e-203
6.795761676284132118216454e-204
1.121453698145759614179247e-204
1.829769964754785976723103e-205
2.951885152172727805174323e-206
4.708751434263043974204288e-207
7.427293903788291748595504e-208
1.158480783974268602856721e-208
1.786878172066357725158781e-209
2.725606152402850424539485e-210
4.111564723695085577129328e-211
6.133954126073636140850659e-212
9.050580450760865242252861e-213
1.320771482102579301885388e-213
1.906368126145021639325911e-214
2.721609777915840494947274e-215
3.843233695015091835749978e-216
5.368229853072300987554395e-217
7.417200035173726851896767e-218
1.013758133239287239215952e-218
1.370644292458809159848705e-219
1.833249154882784716219868e-220
2.425685600013560420868345e-221
3.175217446024659075450287e-222
4.111949186274269721565206e-223
5.268249961124184044775006e-224
6.677872735348337220281897e-225
8.374743387071992203594969e-226
1.039141444081975250147594e-226
1.275720413859589887482523e-227
1.549607229923461094063631e-228
1.862431798342245624021634e-229
2.214821757105624656241503e-230
2.606175203467767164650976e-231
3.03445951609403161004997e-232
3.496054646544727001111175e-233
3.985659029839392702793902e-234
4.496274387527881090658661e-235
5.01928208541918858835398e-236
5.544618456045071277370463e-237
6.061049889883977269686874e-238
6.556541011488647540363496e-239
7.018701511613447332456082e-240
7.435289925479919348782055e-241
7.79474657338751797198478e-242
8.086723693210672334021462e-243
8.302579027930169761967916e-244
8.435800099530504723958021e-245
8.482330149222163741009252e-246
8.440773012494495314879709e-247
8.312462514830465868238441e-248
8.101391588766271381676011e-249
7.814006351899126964369156e-250
7.458879929598224858471105e-251
7.046288993350324476191384e-252
6.587722105130100045852586e-253
6.095352525297223828446552e-254
5.581508943529715839814842e-255
5.058175700078747427077563e-256
4.536549810246731730132593e-257
4.026676030109296180456127e-258
3.537173984292283240974129e-259
3.075063748777629109309321e-260
2.645688945796254006286315e-261
2.252729966220890841268906e-262
1.898294836917907976360154e-263
1.583071763769723901752011e-264
1.306525585927752797234102e-265
1.067120183489635147012526e-266
8.625500626019445027543577e-268
6.899665795989730967947403e-269
5.461871943762908507626835e-270
4.278793972326174340863723e-271
3.317142036386273016528245e-272
2.544870912556881588139025e-273
1.932067737006246240495519e-274
1.451541572460337979756983e-275
1.079151755243304576772959e-276
7.939197068573484021556336e-278
5.779715975326833243774268e-279
4.16357920304933002920379e-280
2.967917842285280012578089e-281
2.093416513885829965273713e-282
1.461072891929195848923294e-283
1.009006691518905612254909e-284
6.894699035865229295207793e-286
4.661531005648840749871618e-287
3.118361389711087710436383e-288
2.063959789472951265454322e-289
1.351589981348624770547478e-290
8.75687940993138708997759e-292
5.613140049299670987771841e-293
3.559636241051864246376562e-294
2.233260671288679140074829e-295
1.38611029183021633425855e-296
8.510810765473154350332477e-298
5.169502435022029749589525e-299
3.106138285903393445251482e-300
1.846189628427903351048258e-301
1.08543600203434555527781e-302
6.312379761593637407726297e-304
3.63104177697441153609219e-305
2.065886757276797977021707e-306
1.162536185357067374248885e-307
6.470209782201529302943499e-309
3.561467741097937018718503e-310
1.938763944082664205839812e-311
1.043739811998276881708882e-312
5.556697015088898265848679e-314
2.925389620544375594418587e-315
1.522926029543696137393373e-316
7.839418653066393515896685e-318
3.989629496732649968880211e-319
2.009859047282190941710282e-320
1.072122451475505000863154e-321
0
0
0
0
0
0
0
0
0
0
0
0
0
0
0
0
0
0
0
0
0
0
0
0
0
0
0
0
0
0
0
0
0
0
0
0
0
0
0
0
0
0
0
0
0
0
0
0
0
0
0
0
0
0
0
0
0
0
0
0
0
0
0
0
0
0
0
0
0
0
0
0
0
0
0
0
0
0
0
0
0
0
0
0
0
0
0
0
0
0
0
0
1.993897297867792250079165e-63
1.507826373922338386877466e-60
5.996829176759989591052753e-58
8.870941802000423683912832e-56
7.480544104300568092890531e-54
4.348045992348626898139029e-52
1.927655098528814698406643e-50
6.729266223536726449631249e-49
1.901878204194042611435947e-47
4.43947539881645495674055e-46
9.294600878210603094975125e-45
1.75698394289932666782124e-43
4.103208594116759869059117e-42
6.644780941786282109685862e-41
5.437537450652416881102194e-33
7.20855735563788036658955e-33
8.723087536551925790561927e-33
1.036966921549746864620513e-32
1.225440081179737947193188e-32
1.443055915992888201100839e-32
1.69422740650861084672575e-32
1.983496323352245193794786e-32
2.315820728342762001952378e-32
2.696683234959902578665955e-32
3.132159025265489893024075e-32
3.628978111683657424973914e-32
4.194591487725719075632636e-32
4.837242935417103605071311e-32
5.566042198381287747891027e-32
6.391041292422256374097531e-32
7.323342256366650019950623e-32
8.375251618454096605820911e-32
9.560367020290944397955169e-32
1.089343720903206476412772e-31
1.239033601256956953782497e-31
1.406910736198227831160419e-31
1.595175964341198434354624e-31
1.806309662669937756246936e-31
2.042366524094476287703003e-31
2.304532671188685842031617e-31
2.594732323193127961099894e-31
2.918962707669882631752609e-31
3.288065976116604632483739e-31
3.712019833869568306574947e-31
4.190982134618670660794596e-31
4.7123008046625358875897e-31
5.254005002228478470397936e-31
5.787042108368365076674425e-31
6.286512373475690982269711e-31
6.761275896935525905896606e-31
7.268555134706008115679862e-31
7.894818922177631430160178e-31
8.736888630291447436959638e-31
9.930189159453282438452933e-31
1.14158536147778915728193e-30
1.225734648638453894405161e-30
1.233554042325478558210159e-30
1.23234568662657549117719e-30
1.227563177015432438031684e-30
1.218299491515992366289284e-30
1.206885499195938098274161e-30
1.197622370115882733576877e-30
1.191497913537658412747154e-30
1.186344768507874341919105e-30
1.179740663752591250529482e-30
1.168944051440842439618415e-30
1.150529217395902280802641e-30
1.120883938684107297870778e-30
1.076943502611412415575273e-30
1.015704282512307629310372e-30
9.318945607981614285210323e-31
8.178571744527001458978054e-31
6.645946399922863543149251e-31
5.079298098475482115924606e-31
3.358836325262677361066848e-31
6.790662330761194062361002e-31
8.590928188989115813207402e-30
1.474564972400197265459401e-28
1.767007510623020792365362e-27
1.536763969458847851131205e-26
1.020202916105710110344811e-25
5.319498644570580038148865e-25
2.187205350138253536666677e-24
6.70391299454634292630474e-24
1.280250202574584178106627e-23
1.457166633625541734415928e-23
1.408685586956747444400487e-23
1.127007371226744418576615e-23
5.542062275110796320080627e-24
1.052611806761997476111352e-24
4.320021724502662195792774e-26
2.090375723014643013494153e-28
6.605150663888192942300749e-32
1.972950433267746871054636e-36
5.479725221574220362020537e-41
1.47756204040726463753109e-45
3.962911819181922203513792e-50
1.074929236625162820996734e-54
2.9539984817735873252834e-59
8.155822675135513562049554e-64
2.24437668132164754761099e-68
6.139257030769634803534676e-73
1.668932717127720880739411e-77
4.517459702234633794675122e-82
1.221578060920793570164652e-86
3.304963039209291280933328e-91
8.933384244526570152723326e-96
2.40649588958713201145254e-100
6.451445499808991750243612e-105
1.720959603319363710629156e-109
4.574966435614194033350052e-114
1.212545413726157414527858e-118
3.202530234058102864165966e-123
8.422417550671971925649052e-128
2.204461646553978582270907e-132
5.742114243211122223477259e-137
1.488687812906078998555554e-141
3.842912947014510317982308e-146
2.692857942810266608915564e-149
1.084632289703825637568633e-149
4.618118100362097007200441e-150
1.939349865653795768927164e-150
7.826844110246683024707321e-151
2.994658547331699539868918e-151
1.083812353118197971184457e-151
3.712181068622466852923388e-152
1.204861952822092878902002e-152
3.711981882553256016390863e-153
1.087418416136776512842838e-153
3.034172987485385313133276e-154
8.076398791311120289454214e-155
2.053809866794866838553954e-155
4.996362593119997259797592e-156
1.164247380244924592339396e-156
2.601632872625400918668599e-157
5.581336694263565698199997e-158
1.15074345796411559004716e-158
2.282453797779183075383665e-159
4.359391597667328942301471e-160
8.025145359602929673826276e-161
1.425195926872236380515489e-161
2.443848979581638918030164e-162
4.049775983861007236174272e-163
6.491152217464862733051747e-164
1.007224382843807470460995e-164
1.514362526323178088549882e-165
2.208149911375688078088016e-166
3.12560017255091143132144e-167
4.299088807984480815097926e-168
5.751979764244766031040349e-169
7.49468396061528401905933e-170
9.522111532882024086387106e-171
1.181364100668759510062368e-171
1.433708956785859006007709e-172
1.705936486799871859594135e-173
1.997006167169904223038341e-174
2.313389981783291557629505e-175
2.681219077922221975867374e-176
3.175260713833863794465123e-177
3.988711795999362613072133e-178
5.600701470694787307934648e-179
9.174298737737483727340314e-180
1.749042703027163947683063e-180
3.71100164712838253385528e-181
8.331166794100029339165312e-182
1.91213933644336080599529e-182
4.404872624202634213543202e-183
1.009512720583973215749341e-183
2.292462758260821636895172e-184
5.148970481950828095070894e-185
1.14293157939402777290004e-185
2.506419793262792353607277e-186
5.429542020827981635781845e-187