/*--------------------------------*- C++ -*----------------------------------*\
| =========                 |                                                 |
| \\      /  F ield         | OpenFOAM: The Open Source CFD Toolbox           |
|  \\    /   O peration     | Version:  v2012                                 |
|   \\  /    A nd           | Website:  www.openfoam.com                      |
|    \\/     M anipulation  |                                                 |
\*---------------------------------------------------------------------------*/
FoamFile
{
    version     2.0;
    format      ascii;
    class       volScalarField;
    location    "1.3";
    object      alpha.water;
}
// * * * * * * * * * * * * * * * * * * * * * * * * * * * * * * * * * * * * * //

dimensions      [0 0 0 0 0 0 0];


internalField   nonuniform List<scalar> 
96000
(
0
0
0
0
0
0
0
0
0
0
0
0
0
0
0
0
0
0
0
0
0
0
0
0
0
0
0
0
0
0
0
0
0
0
0
0
0
0
0
0
0
0
0
0
0
0
0
0
0
0
0
0
0
0
0
0
0
0
0
0
0
0
0
0
0
0
0
0
0
0
0
0
0
0
0
0
0
0
0
0
0
0
0
0
0
0
0
0
0
0
0
0
0
0
0
0
0
0
0
0
0
0
0
0
0
0
0
0
0
0
0
0
0
0
0
0
0
0
0
0
0
0
0
0
0
0
0
0
0
0
0
0
0
0
0
0
0
0
0
0
0
0
0
0
0
0
0
0
0
0
0
0
0
0
0
0
0
0
0
0
0
0
0
0
0
0
0
0
0
0
0
0
0
0
0
0
0
0
0
0
0
0
0
0
0
0
0
0
0
0
0
0
0
0
0
0
0
0
0
0
0
0
0
0
0
0
0
0
0
0
0
0
0
0
0
0
0
0
0
0
0
0
0
0
0
0
0
0
0
0
0
0
0
0
0
0
0
0
0
0
0
0
0
0
0
0
0
0
0
0
0
0
0
0
0
0
0
0
0
0
0
0
0
0
0
0
0
0
0
0
0
0
0
0
0
0
0
0
0
0
0
0
0
0
0
0
0
0
0
0
0
0
0
0
0
0
0
0
0
0
0
0
0
0
0
0
0
0
0
0
0
0
0
0
0
0
0
0
0
0
0
0
0
0
0
0
0
0
0
0
0
0
0
0
0
0
0
0
0
0
0
0
0
0
0
0
0
0
0
0
0
0
0
0
0
0
0
0
0
0
0
0
0
0
0
0
0
0
0
0
0
0
0
0
0
0
0
0
0
0
0
0
0
0
0
0
0
0
0
0
0
0
0
0
0
0
0
0
0
0
0
0
0
0
0
0
0
0
0
0
0
0
0
0
0
0
0
0
0
0
0
0
0
0
0
0
0
0
0
0
0
0
0
0
0
0
0
0
0
0
0
0
0
0
0
0
0
0
0
0
0
0
0
0
0
0
0
0
0
0
0
0
0
0
0
0
0
0
0
0
0
0
0
0
0
0
0
0
0
0
0
0
0
0
0
0
0
0
0
0
0
0
0
0
0
0
0
0
0
0
0
0
0
0
0
0
0
0
0
0
0
0
0
0
0
0
0
0
0
0
0
0
0
0
0
0
0
0
0
0
0
0
0
0
0
0
0
0
0
0
0
0
0
0
0
0
0
0
0
0
0
0
0
0
0
0
0
0
0
0
0
0
0
0
0
0
0
0
0
0
0
0
0
0
0
0
0
0
0
0
0
0
0
0
0
0
0
0
0
0
0
0
0
0
0
0
0
0
0
0
0
0
0
0
0
0
0
0
0
0
0
0
0
0
0
0
0
0
0
0
0
0
0
0
0
0
0
0
0
0
0
0
0
0
0
0
0
0
0
0
0
0
0
0
0
0
0
0
0
0
0
0
0
0
0
0
0
0
0
0
0
0
0
0
0
0
0
0
0
0
0
0
0
0
0
0
0
0
0
0
0
0
0
0
0
0
0
0
0
0
0
0
0
0
0
0
0
0
0
0
0
0
0
0
0
0
0
0
0
0
0
0
0
0
0
0
0
0
0
0
0
0
0
0
0
0
0
0
0
0
0
0
0
0
0
0
0
0
0
0
0
0
0
0
0
0
0
0
0
0
0
0
0
0
0
0
0
0
0
0
0
0
0
0
0
0
0
0
0
0
0
0
0
0
0
0
0
0
0
0
0
0
0
0
0
0
0
0
0
0
0
0
0
0
0
0
0
0
0
0
0
0
0
0
0
0
0
0
0
0
0
0
0
0
0
0
0
0
0
0
0
0
0
0
0
0
0
0
0
0
0
0
0
0
0
0
0
0
0
0
0
0
0
0
0
0
0
0
0
0
0
0
0
0
0
0
0
0
0
0
0
0
0
0
0
0
0
0
0
0
0
0
0
0
0
0
0
0
0
0
0
0
0
0
0
0
0
0
0
0
0
0
0
0
0
0
0
0
0
0
0
0
0
0
0
0
0
0
0
0
0
0
0
0
0
0
0
0
0
0
0
0
0
0
0
0
0
0
0
0
0
0
0
0
0
0
0
0
0
0
0
0
0
0
0
0
0
0
0
0
0
0
0
0
0
0
0
0
0
0
0
0
0
0
0
0
0
0
0
0
0
0
0
0
0
0
0
0
0
0
0
0
0
0
0
0
0
0
0
0
0
0
0
0
0
0
0
0
0
0
0
0
0
0
0
0
0
0
0
0
0
0
0
0
0
0
0
0
0
0
0
0
0
0
0
0
0
0
0
0
0
0
0
0
0
0
0
0
0
0
0
0
0
0
0
0
0
0
0
0
0
0
0
0
0
0
0
0
0
0
0
0
0
0
0
0
0
0
0
0
0
0
0
0
0
0
0
0
0
0
0
0
0
0
0
0
0
0
0
0
0
0
0
0
0
0
0
0
0
0
0
0
0
0
0
0
0
0
0
0
0
0
0
0
0
0
0
0
0
0
0
0
0
0
0
0
0
0
0
0
0
0
0
0
0
0
0
0
0
0
0
0
0
0
0
0
0
0
0
0
0
0
0
0
0
0
0
0
0
0
0
0
0
0
0
0
0
0
0
0
0
0
0
0
0
0
0
0
0
0
0
0
0
0
0
0
0
0
0
0
0
0
0
0
0
0
0
0
0
0
0
0
0
0
0
0
0
0
0
0
0
0
0
0
0
0
0
0
0
0
0
0
0
0
0
0
0
0
0
0
0
0
0
0
0
0
0
0
0
0
0
0
0
0
0
0
0
0
0
0
0
0
0
0
0
0
0
0
0
0
0
0
0
0
0
0
0
0
0
0
0
0
0
0
0
0
0
0
0
0
0
0
0
0
0
0
0
0
0
0
0
0
0
0
0
0
0
0
0
0
0
0
0
0
0
0
0
0
0
0
0
0
0
0
0
0
0
0
0
0
0
0
0
0
0
0
0
0
0
0
0
0
0
0
0
0
0
0
0
0
0
0
0
0
0
0
0
0
0
0
0
0
0
0
0
0
0
0
0
0
0
0
0
0
0
0
0
0
0
0
0
0
0
0
0
0
0
0
0
0
0
0
0
0
0
0
0
0
0
0
0
0
0
0
0
0
0
0
0
0
0
0
0
0
0
0
0
0
0
0
0
0
0
0
0
0
0
0
0
0
0
0
0
0
0
0
0
0
0
0
0
0
0
0
0
0
0
0
0
0
0
0
0
0
0
0
0
0
0
0
0
0
0
0
0
0
0
0
0
0
0
0
0
0
0
0
0
0
0
0
0
0
0
0
0
0
0
0
0
0
0
0
0
0
0
0
0
0
0
0
0
0
0
0
0
0
0
0
0
0
0
0
0
0
0
0
0
0
0
0
0
0
0
0
0
0
0
0
0
0
0
0
0
0
0
0
0
0
0
0
0
0
0
0
0
0
0
0
0
0
0
0
0
0
0
0
0
0
0
0
0
0
0
0
0
0
0
0
0
0
0
0
0
0
0
0
0
0
0
0
0
0
0
0
0
0
0
0
0
0
0
0
0
0
0
0
0
0
0
0
0
0
0
0
0
0
0
0
0
0
0
0
0
0
0
0
0
0
0
0
0
0
0
0
0
0
0
0
0
0
0
0
0
0
0
0
0
0
0
0
0
0
0
0
0
0
0
0
0
0
0
0
0
0
0
0
0
0
0
0
0
0
0
0
0
0
0
0
0
0
0
0
0
0
0
0
0
0
0
0
0
0
0
0
0
0
0
0
0
0
0
0
0
0
0
0
0
0
0
0
0
0
0
0
0
0
0
0
0
0
0
0
0
0
0
0
0
0
0
0
0
0
0
0
0
0
0
0
0
0
0
0
0
0
0
0
0
0
0
0
0
0
0
0
0
0
0
0
0
0
0
0
0
0
0
0
0
0
0
0
0
0
0
0
0
0
0
0
0
0
0
0
0
0
0
0
0
0
0
0
0
0
0
0
0
0
0
0
0
0
0
0
0
0
0
0
0
0
0
0
0
0
0
0
0
0
0
0
0
0
0
0
0
0
0
0
0
0
0
0
0
0
0
0
0
0
0
0
0
0
0
0
0
0
0
0
0
0
0
0
0
0
0
0
0
0
0
0
0
0
0
0
0
0
0
0
0
0
0
0
0
0
0
0
0
0
0
0
0
0
0
0
0
0
0
0
0
0
0
0
0
0
0
0
0
0
0
0
0
0
0
0
0
0
0
0
0
0
0
0
0
0
0
0
0
0
0
0
0
0
0
0
0
0
0
0
0
0
0
0
0
0
0
0
0
0
0
0
0
0
0
0
0
0
0
0
0
0
0
0
0
0
0
0
0
0
0
0
0
0
0
0
0
0
0
0
0
0
0
0
0
0
0
0
0
0
0
0
0
0
0
0
0
0
0
0
0
0
0
0
0
0
0
0
0
0
0
0
0
0
0
0
0
0
0
0
0
0
0
0
0
0
0
0
0
0
0
0
0
0
0
0
0
0
0
0
0
4.38280463051833516805796e-44
5.563578347546893036760748e-42
3.423095285655466691310533e-40
1.355242255779082026133962e-38
3.522333962923729504679106e-37
6.38333133847154038099701e-36
1.428591273251390936526742e-34
4.944653730335184462831602e-33
1.556033277705765722371967e-31
3.281784200558508253740973e-30
6.544400347815780184045424e-29
6.584679278076472321275383e-28
1.368547984187423694669313e-23
1.59487603238346331858469e-23
1.747260266139720902348135e-23
1.8840014965912842999526e-23
1.955004683930810244563361e-23
1.961091883194858690914448e-23
1.959615053370293727678686e-23
1.954949176566837463401049e-23
1.947493513336751385532458e-23
1.937940704251988672087238e-23
1.925471914861903697017308e-23
1.910885545671376052777977e-23
1.899982012155352725852384e-23
1.895323929220357521724879e-23
1.893430130279691793212004e-23
1.891946967435102020115041e-23
1.889710422170961358059765e-23
1.885290176603321729508436e-23
1.876809317725117471178292e-23
1.862582801279079671488873e-23
1.841589808848107959580878e-23
1.81325216392884090349758e-23
1.776971570573428516063648e-23
1.732034811635917160358944e-23
1.678128317173578092753083e-23
1.61625955516773563489866e-23
1.548972252331192131157068e-23
1.478342802145616770866922e-23
1.402489329419228653008945e-23
1.313505996043883614743105e-23
1.198764375199197005258331e-23
1.048611804710425123235522e-23
8.707670998206806433709922e-24
6.924815537064156946436749e-24
5.395784729467117911321364e-24
4.256047603542138323932206e-24
3.544750254049687216745385e-24
3.132758612491498375235895e-24
2.783788412421689894025311e-24
2.241436217702312698501909e-24
1.452098468598045439215609e-24
1.100989619323302479597994e-24
1.102127462236660695450146e-24
1.291869659727166050314553e-24
2.424530998301749414792376e-24
7.256062111240323010095466e-24
2.470314477627152388797959e-23
8.066135625721933092355592e-23
2.417816366584498681959536e-22
6.568262660943584121566733e-22
1.596944590189478060919424e-21
3.379813104489425493056935e-21
6.000031934416405890358056e-21
8.815296296741604522358383e-21
1.101743189035413057985169e-20
1.232359035574287338013306e-20
1.296290086326600076877259e-20
1.244077002416739359818037e-20
4.138720666103253005636959e-21
1.197202871497179807047208e-22
6.689264565071631388894636e-26
2.006891548596167798922018e-31
4.186138378312215524407447e-37
6.397657651949574281096825e-43
1.674093370776474303118577e-48
3.2323361081122369205234e-54
5.888977926143546366403515e-60
1.376925029532880208573284e-65
2.56808595290853910672938e-71
5.188949290582501860019988e-77
1.114843955059199463487774e-82
2.083020369155719657756962e-88
4.448449132133112734414655e-94
9.065799245390932597654431e-100
1.742827143320693130442252e-105
3.836856649594937145317492e-111
7.665443685981588415349806e-117
1.533745314922824672070678e-122
3.401334021655299326661976e-128
6.789171676821960831664409e-134
1.403144651202794868250789e-139
3.036560700973893257721388e-145
1.663135567948845413238349e-149
1.846462261869642632276673e-150
1.59417229719310115082851e-151
1.663781713054490158225922e-152
1.693402910854404543675681e-153
1.726170289134773252438992e-154
1.778201184495464812445112e-155
1.844074186638723013905948e-156
1.927397321588594473755644e-157
2.031319366889608921952205e-158
2.164364087434436433784969e-159
2.34806411427482231560294e-160
2.635795585741993212467257e-161
3.166227726918474000418084e-162
4.312091236349533489522987e-163
7.094751716139532000350179e-164
1.43330350199617752279516e-164
3.379139030185556905608428e-165
8.667629161359297674490771e-166
2.301568163275154244370882e-166
6.15882918697144932089997e-167
1.638868754601699104535063e-167
4.308088086717653578267177e-168
1.114852038718926568271866e-168
2.834742002875913645389403e-169
7.074509008087806144567354e-170
1.731748781756701938185491e-170
4.156383189303828670558807e-171
9.779072049951337983069853e-172
2.255213111183877986295007e-172
5.09768774689778443241369e-173
1.129440959178274057229615e-173
2.45291142562274511138634e-174
5.222295555558749163879869e-175
1.090039414755848349490636e-175
2.230840672994157854638611e-176
4.47700777174829345742668e-177
8.811487139384098165185399e-178
1.700993758452946691043387e-178
3.221059762330469394451411e-179
5.983946258494257933178738e-180
1.09073498655384135011177e-180
1.950933899282781725209389e-181
3.424568012925709643671785e-182
5.900055309030526593423751e-183
9.977904998144926234808658e-184
1.656533956223552312441005e-184
2.700115955536869809161799e-185
4.32143154543078995217447e-186
6.791671906405214178921388e-187
1.048259720106266044338802e-187
1.589066789726807638834754e-188
2.366099359029468795670257e-189
3.46080006996680540331394e-190
4.972863102548469424920698e-191
7.020294665193878112424537e-192
9.737647577723203871558526e-193
1.327187631365487038548901e-193
1.777536481362999158273299e-194
2.339589679950871102351109e-195
3.026367112067122322921323e-196
3.847589603103617734822875e-197
4.807998498257235765276337e-198
5.905685744152919878120512e-199
7.130623855011278932537878e-200
8.463606237470171651090688e-201
9.875803653030510756593741e-202
1.132910710986627103632119e-202
1.277736064645419632354103e-203
1.416849420494683847403087e-204
1.54474574964725804013255e-205
1.655974523299154978219686e-206
1.745520935662785177046613e-207
1.809179124518588096813504e-208
1.843878879495777806039204e-209
1.847930578911801758709679e-210
1.821161202234104199837915e-211
1.764926212946637943519885e-212
1.681996222342454811827593e-213
1.576331580308116041615725e-214
1.452770331930570623243422e-215
1.316663613974818328038025e-216
1.173496465059769414648976e-217
1.028530905999535696104187e-218
8.865025294246765040845519e-220
7.513928910164579485490162e-221
6.26289288609380070610892e-222
5.133327169666515465262072e-223
4.137453715017413277403412e-224
3.279221112637463962884392e-225
2.555663235884142321364219e-226
1.95849673538048512716597e-227
1.475768424615561852562425e-228
1.093398411285670217890012e-229
7.965098240779030325536415e-231
5.704831133698216014725516e-232
4.017156548289762438089321e-233
2.781014304130935004891974e-234
1.892688857982293686063224e-235
1.266276711661228221028383e-236
8.327834112168470335498844e-238
5.383553227496102880499853e-239
3.420721166770357439741284e-240
2.136264505396105315427011e-241
1.311163216827499809819832e-242
7.908557482170658525809588e-244
4.687590501458624191034415e-245
2.730144723958035836361055e-246
1.562340386063357441256012e-247
8.783924783550873306154191e-249
4.851679010653801701152147e-250
2.632401299137521928377276e-251
1.402921282552341974915497e-252
7.343426211295372039303553e-254
3.774938452664472680021656e-255
1.905577410951207624937254e-256
9.445112100577740345848205e-258
4.596295667920772219518169e-259
2.195755065482683626414757e-260
1.02964591187745353326229e-261
4.738829711567477874800891e-263
2.140339775345728574262318e-264
9.485713669072111870274228e-266
4.124565381313598378670978e-267
1.759342495305195248043742e-268
7.360843306124091320973342e-270
3.020288652067827386990815e-271
1.215204657374435592684883e-272
4.793629783737001688590393e-274
1.853638948398650450662562e-275
7.025226132407145608780178e-277
2.609132915485309282750463e-278
9.494153920977942543667737e-280
3.384239054676642324942474e-281
1.181484435454349416593773e-282
4.038978484587602438463229e-284
1.351769702554976004001277e-285
4.428219614520706571265051e-287
1.419563834952181990835548e-288
4.452258239092395585192107e-290
1.365846208146916072720097e-291
4.097430312562989218528481e-293
1.20170439122859528152118e-294
3.44463710807251273918166e-296
9.647788369301475356533898e-298
2.639515649196334144120654e-299
7.051822170451023911026425e-301
1.839170603861968156274655e-302
4.681050273507408018770033e-304
1.162294308048027508301377e-305
2.81439334619388728095832e-307
6.643344958012851531964609e-309
1.52810166703484339078994e-310
3.423761157682576989601553e-312
7.46886294642549808743453e-314
1.585661862729903863602268e-315
3.274667594701427936048842e-317
6.576853657744921622115231e-319
1.284570679187241014859079e-320
3.310239827136351845983011e-322
0
0
0
0
0
0
0
0
0
0
0
0
0
0
0
0
0
0
0
0
0
0
0
0
0
0
0
0
0
0
0
0
0
0
0
0
0
0
0
0
0
0
0
0
0
0
0
0
0
0
0
0
0
0
0
0
0
0
0
0
0
0
0
0
0
0
0
0
0
0
0
0
0
0
0
0
0
0
0
0
0
0
0
0
0
0
0
0
0
0
0
0
0
0
0
0
0
0
0
0
0
0
0
0
0
0
0
0
0
0
0
0
0
0
0
0
0
0
0
0
0
0
0
0
0
0
0
0
0
0
0
0
0
0
0
0
0
0
0
0
0
0
0
0
0
1.090313204463520986095313e-44
5.198705769000719323578922e-42
5.606757448334154658596775e-40
3.185516767408832604489664e-38
1.233180206328267729243966e-36
3.524780585669622914472472e-35
7.242059783609955877044234e-34
1.278495677583580598737842e-32
2.535408713851636703809893e-31
6.183746699167292060866258e-30
1.394007761572520130196109e-28
3.361524690372521658567252e-27
4.133227646459950955113062e-26
5.777296534534527500356846e-22
7.23906006472368241107826e-22
8.347500054327490264973663e-22
9.446924376383937510174354e-22
1.058024068329735159432697e-21
1.175437903653144268760207e-21
1.298411009813655097479497e-21
1.42547180775006420303395e-21
1.552311141933431514140669e-21
1.688880109073398235911197e-21
1.880284652668159257767769e-21
2.162267801514315218077088e-21
2.356579693492835059356905e-21
2.378130276725758998150523e-21
2.374679597953118110866877e-21
2.357929930677373275016192e-21
2.320744772600055034973651e-21
2.277401435102099218587743e-21
2.250211922858304262807164e-21
2.236618673799038141159578e-21
2.225754046966938368880626e-21
2.210551518777060909735253e-21
2.183900387560697531775076e-21
2.137827639358674621004278e-21
2.066505885587983895082538e-21
1.969132037902203908673424e-21
1.847020919061779136725925e-21
1.696817382266111994759967e-21
1.509720177808785669455244e-21
1.284902674052905796645765e-21
1.051328218661846114323399e-21
8.558358228850857358129934e-22
7.116533654764277120360663e-22
5.952491870634712593010004e-22
4.861366641087037449437498e-22
3.915717300926182597214247e-22
3.283595072705032147058481e-22
2.830557720046150033399926e-22
2.272412743787246440451699e-22
1.600502987453043035343341e-22
1.376631959178995595555254e-22
1.404973891848948713476595e-22
1.788986222365373165466018e-22
3.9229357639587912271489e-22
1.276071243991810393396598e-21
4.384363354371216512466135e-21
1.399652160403708622428633e-20
4.014081445935130908792551e-20
1.018746199388983782002846e-19
2.25328004356341225547969e-19
4.242374177496908263119634e-19
6.692262962812305149232402e-19
8.99389305324009606291249e-19
1.068752542667115665927784e-18
1.159947092552936665561711e-18
1.167471517248908994689237e-18
5.771990265227056117319458e-19
4.083460518844537744168491e-20
5.936511586406011239744135e-22
4.093787303496859901849073e-24
9.36783584934014138733411e-28
2.857565976400120569587592e-33
5.59641948397687651484118e-39
1.708199125939501272827162e-44
3.958046544040434346802978e-50
8.128646837849834342368902e-56
2.171508812225309022224584e-61
4.574412746721016079707999e-67
1.007122628956712193799704e-72
2.386643027331492598246342e-78
4.89045874425342583066293e-84
1.115629731545686756514822e-89
2.460183596388285168382824e-95
5.094707886150574363162295e-101
1.182828151912865614050359e-106
2.52490118238558665408802e-112
5.364417282086937800019067e-118
1.242069169142832881501705e-123
2.620177327963237243922617e-129
5.686128196673669518077814e-135
1.281812476774457885150288e-140
2.710875895602382822465904e-146
1.62141838006744434069386e-149
1.314388285494892973678444e-150
1.478846019838874951422815e-151
1.68926692824642447035437e-152
1.88588896671941909830311e-153
2.118712410519140913749368e-154
2.38148655725309511611322e-155
2.682414265058446935410411e-156
3.035954202342554006014414e-157
3.471140090714429338283487e-158
4.059648547430372259488464e-159
4.989291019549813083445557e-160
6.780032634935275110585558e-161
1.09133369645412911920821e-161
2.165940230963621732328999e-162
5.133040447945643911752282e-163
1.35165930671988191670089e-163
3.72775314264816575096037e-164
1.041264410786161963412067e-164
2.897596802481537676304893e-165
7.969158664746193411821045e-166
2.157468650957722846238273e-166
5.737330358722605798235655e-167
1.496902539689266392446131e-167
3.829139827098872966601309e-168
9.599893579250983562754381e-169
2.358309275189278602274995e-169
5.676305871728780471277999e-170
1.338615325586348440542208e-170
3.093049882276412759748359e-171
7.003096144314540075532356e-172
1.553839478537447643206905e-172
3.378956843359669835077384e-173
7.202304397948070685518892e-174
1.504968044676376346224915e-174
3.083232539871113236613841e-175
6.193917584548435755396592e-176
1.220286349333072419487421e-176
2.358044375876278076713886e-177
4.469841265119665257608664e-178
8.312606384012953511153844e-179
1.516845294606616839179214e-179
2.716170546367262456889378e-180
4.773487938670456334060586e-181
8.23431791218125224644378e-182
1.394379335573895405139612e-182
2.318156565556248006644314e-183
3.78406524933910384720508e-184
6.065582165149878501199278e-185
9.548317938752169505623063e-186
1.476259633786905182429988e-186
2.241917371949072067464141e-187
3.344532811408682369961691e-188
4.901701714013157485296202e-189
7.05811900295776710889656e-190
9.98608945694663876146722e-191
1.38834886102534368299879e-191
1.896834192862038819214457e-192
2.546931742079455301870248e-193
3.361171344448982190166915e-194
4.359898015425810846187853e-195
5.559042183775331043634667e-196
6.96764354961674285257057e-197
8.585336025721742941947717e-198
1.04000626096425714769236e-198
1.238632695334286790458924e-199
1.450429086255006256817622e-200
1.669998553533665608216429e-201
1.890681659552640244968662e-202
2.104841413329162901671889e-203
2.304272236924017386204558e-204
2.480705944202103920879562e-205
2.626373051015216543506691e-206
2.734567126057275002031664e-207
2.80015540028311099852546e-208
2.819981626621813224119302e-209
2.79311724424957393682692e-210
2.72093308327290661277355e-211
2.606983942727799674898626e-212
2.456719514073831643929815e-213
2.277054259412374769527424e-214
2.075843304307798153778593e-215
1.861319300847101919035173e-216
1.641545793907084594422823e-217
1.423936295142596934769045e-218
1.214876474589479516727204e-219
1.019471760325580801354484e-220
8.41426612526481868334991e-222
6.830470794053569576598416e-223
5.453467170248683889126673e-224
4.282286122986198157625367e-225
3.307133602889686931701051e-226
2.511839923216425940806005e-227
1.876231074038045144275446e-228
1.378236417440783277384593e-229
9.95616123711070032814495e-231
7.072575202781517967008407e-232
4.940446424589894307134856e-233
3.393455421801472881554423e-234
2.291862943213696144225754e-235
1.521905565878485095011125e-236
9.936196516943583388765317e-238
6.377723236494161214939171e-239
4.02441344539734804241317e-240
2.49636500748237909968851e-241
1.522152026924321197989453e-242
9.122775900549216511257044e-244
5.373883917963621813440941e-245
3.111098604310891564512309e-246
1.770003170654403266789426e-247
9.895511303726396074824396e-249
5.435932864885516167515515e-250
2.933917122350134256489248e-251
1.555694357086387884255668e-252
8.103387772734331602466388e-254
4.146069140890033193637812e-255
2.08350277490606931489621e-256
1.028247467176081174661332e-257
4.983149706120592463653748e-259
2.371198405166494975575596e-260
1.107752356221746471836972e-261
5.080185899390485792215137e-263
2.286799349265338477095104e-264
1.01026540475617769255161e-265
4.379729350217807514550714e-267
1.862973796835959496322808e-268
7.774188098185913229495363e-270
3.182226381883593326295157e-271
1.277530907576505552156125e-272
5.029331488058179106526937e-274
1.941240320418141761003112e-275
7.345268119797822769805652e-277
2.724091807519557238158013e-278
9.90022818924402051373857e-280
3.525321972448751428602714e-281
1.229702940384775728201059e-282
4.201109994260183274812931e-284
1.405405367546727608638364e-285
4.602785665268524712121718e-287
1.475454370197293460792709e-288
4.628254815510487973839336e-290
1.420338422401895018865717e-291
4.263262308662969000590931e-293
1.251284808286550154457281e-294
3.590194116357630761178987e-296
1.006714531109933987968208e-297
2.758007321091887240548875e-299
7.379958858185110501151379e-301
1.928169305734953983737966e-302
4.917297729488977443978457e-304
1.223627458377823418461744e-305
2.97001082907921175957493e-307
7.028955598293880200612558e-309
1.621354715706106689176143e-310
3.643699121433458400790825e-312
7.974412703545243150408593e-314
1.698839451544685116050505e-315
3.52126316952548170494553e-317
7.097203595944922482441993e-319
1.391288858688950268401218e-320
3.310239827136351845983011e-322
0
0
0
0
0
0
0
0
0
0
0
0
0
0
0
0
0
0
0
0
0
0
0
0
0
0
0
0
0
0
0
0
0
0
0
0
0
0
0
0
0
0
0
0
0
0
0
0
0
0
0
0
0
0
0
0
0
0
0
0
0
0
0
0
0
0
0
0
0
0
0
0
0
0
0
0
0
0
0
0
0
0
0
0
0
0
0
0
0
0
0
0
0
0
0
0
0
0
0
0
0
0
0
0
0
0
0
0
0
0
0
0
0
0
0
0
0
0
0
0
0
0
0
0
0
0
0
0
0
0
0
0
0
0
0
0
0
0
0
0
0
0
0
1.745660295869540978376441e-45
8.802643508611126100271194e-43
2.316374277187650377498224e-40
2.276782258469304784719618e-38
1.274699163664312187443214e-36
4.937908830166255782493005e-35
1.419124909308733074114374e-33
3.056961231361802852162559e-32
5.471863254297813093138083e-31
8.709211522799123271767237e-30
1.491793773830626397581899e-28
2.804829963368575514691814e-27
7.812596270972035363423221e-26
1.106915975565805920367218e-24
9.899233101225514595991724e-21
1.311728861306588562945834e-20
1.585556609062016520468851e-20
1.880702752753479102845641e-20
2.214188492439096354334308e-20
2.593294939938454154000257e-20
3.02278019659538922319567e-20
3.50320707354272264022503e-20
4.03588171422386298848864e-20
4.646898222885936603440507e-20
5.396139786992762689128897e-20
6.292947123105982669082866e-20
7.176952497479752873886411e-20
7.876119726702983719222701e-20
8.429357647846238886822714e-20
9.009897822802394547551602e-20
9.670425719738491480417575e-20
1.003643541029727480204315e-19
1.007393276958792239895958e-19
1.007153373511440835010591e-19
1.005905396371681268831742e-19
1.002536613759061957383225e-19
9.959358056326156881504133e-20
9.846351324155801093763973e-20
9.660912405557238437597624e-20
9.354805218247574522589043e-20
8.833779266629280431228147e-20
7.959437772112372455170028e-20
6.680932573299610333152108e-20
5.278146735069325445653649e-20
4.196803418929902978025191e-20
3.508898908186333188498418e-20
2.993459281212187150245307e-20
2.473571907981067271049091e-20
1.94936111361323225809996e-20
1.570129337684906764500679e-20
1.331981276608926487121554e-20
1.091310574200821137567154e-20
8.074670536555287437644627e-21
7.028851234343225744267059e-21
7.167569211643427022197533e-21
9.125415690786657241187652e-21
2.040079675355197345828742e-20
6.8812025422442774385943e-20
2.439197893148341264445264e-19
7.923513104889523301689779e-19
2.275274878069931057225165e-18
5.653779121749627574949301e-18
1.186339405816170634085702e-17
2.077336224734447183116891e-17
3.042123651652199008705122e-17
3.855920111366640237470554e-17
4.418228737075069832658796e-17
4.613564252209002024652341e-17
3.471200053888300526561301e-17
6.148726679912446387190028e-18
1.680487789407131332554663e-19
2.195152642433451642362715e-21
3.034205905778687780431968e-24
2.337721005157254078958937e-27
8.752540831205521186328434e-32
2.624412067714221752857476e-37
1.446882437458230616665808e-42
3.646354817510734976818829e-48
9.597722041211434070914471e-54
3.97103094749584721311166e-59
8.653176521380645450375928e-65
2.472996330696630988665984e-70
7.459632683923280478456469e-76
1.624456494230569913572063e-81
4.775453446233901358540867e-87
1.181524817194963866692408e-92
2.722188360682487145097012e-98
7.893488028304544153799422e-104
1.762860233079318740317343e-109
4.277067715213179902336809e-115
1.175085808938572441678316e-120
2.510322926297393555618343e-126
6.233973131095323098630819e-132
1.582081539574381900403757e-137
3.444223707321510795010502e-143
1.031848295228561387093923e-148
4.527758453075659972664607e-150
6.340272371728529680281304e-151
7.905874101199588811870217e-152
9.808143825616571178272894e-153
1.214399470344009608764498e-153
1.488642371220707895512228e-154
1.818275602167649381860237e-155
2.223945642664398675969376e-156
2.752001943454028859188177e-157
3.521859061748385753697829e-158
4.868636815317832068607078e-159
7.78058963456386808560459e-160
1.52314539326415049019131e-160
3.620434289966737671529188e-161
9.767662720307063437503731e-162
2.797022324121741475448957e-162
8.161064412338212959986618e-163
2.377445788540983336551833e-163
6.848703796209889573452467e-164
1.941852911738801713128384e-164
5.406315713531618186444568e-165
1.476075475005698761674611e-165
3.949398835216791970309557e-166
1.035144510275316817513545e-166
2.657259865968940457206579e-167
6.680329076791383060501172e-168
1.644727940884799917663998e-168
3.965944851518502333123109e-169
9.366872341451084083582649e-170
2.167138957369051350538676e-170
4.912228790394493810320434e-171
1.091012429038543403489547e-171
2.374664256600242472807452e-172
5.065934506088450763492412e-173
1.059413871655917928562829e-173
2.172121909858993055992252e-174
4.366950900826596676220353e-175
8.610139094470494764926171e-176
1.665101709905626521285522e-176
3.158855445588048789145805e-177
5.87943099181985498893321e-178
1.073776805637129803906615e-178
1.924513316458402017112395e-179
3.385395085533449336414622e-180
5.845625996860578093136487e-181
9.909139384220088551307185e-182
1.649196645374932927668167e-182
2.695176625383197291356941e-183
4.325390774606981681192177e-184
6.817579633427939639916927e-185
1.05546457552122129314706e-185
1.605114137287372407614272e-186
2.398035930906738461849433e-187
3.519898393439841428320821e-188
5.076506093857681317037327e-189
7.194394313872938328044704e-190
1.001961086825839716900181e-190
1.371406169880270962522195e-191
1.844887585395092128120956e-192
2.439444009192537083265953e-193
3.170707381758022314760429e-194
4.051275156760743173332856e-195
5.088879781426802749507749e-196
6.284501616995882975196594e-197
7.630618883721985978364563e-198
9.109819743034600107911528e-199
1.069400823012802549260826e-199
1.234441064524064883092753e-200
1.401252956514133856326011e-201
1.564210171673622906192084e-202
1.717200241683228657425318e-203
1.853991729421714004865625e-204
1.968648918848494946185939e-205
2.055956270294243049971988e-206
2.111810644503416045773066e-207
2.133540331387466371608244e-208
2.120116408865761262886783e-209
2.072233201804311725615024e-210
1.992249113385575602504686e-211
1.883994809595716395284537e-212
1.752470398417496303554681e-213
1.603464795360967045553842e-214
1.443137384372636150813772e-215
1.277603628842420712497773e-216
1.112562591302907414287777e-217
9.529963035883611357277699e-219
8.029600878924696232619487e-220
6.654710336522054055513433e-221
5.424906100764309836568851e-222
4.349882432713299044916095e-223
3.43066510145104632664234e-224
2.661257252401514813045402e-225
2.030459157623867202184853e-226
1.523668821733823217213349e-227
1.1245138031731712084391e-228
8.162153402122081340273632e-230
5.826358763311178723596351e-231
4.090042665162978803692845e-232
2.823456516323660054551074e-233
1.916639262664942842990557e-234
1.279345580144533221461213e-235
8.396622204716133724646777e-237
5.418392281960982724637331e-238
3.437668571038135022388922e-239
2.14418723365232635879198e-240
1.314748612400194574595138e-241
7.924629278885485993924259e-243
4.695101926522977024569639e-244
2.734092721628721681232153e-245
1.56478461346171511735606e-246
8.801133666108425094088148e-248
4.864448425118697191203784e-249
2.641838827095081671816454e-250
1.409685074374672255514498e-251
7.39000617062356019793255e-253
3.805719208650621760857452e-254
1.925123908128111429843707e-255
9.56466572111817705655318e-257
4.666890193735792922937271e-258
2.236082742923825581446362e-259
1.051973364908669729989098e-260
4.858816549960781680013703e-262
2.203005595889018290093897e-263
9.804119522713742575413641e-265
4.282092989857915035973197e-266
1.835281443585380947657205e-267
7.717752214404417995417526e-269
3.183910905290380142062386e-270
1.288400868472379312179e-271
5.113248953136126618047429e-273
1.989903891184195036764188e-274
7.592545873439156850179763e-276
2.839822917478109429459697e-277
1.041044476523889357466243e-278
3.739765724901262458827731e-280
1.316244608129195879815238e-281
4.537983434128491982534819e-283
1.532276570121830321733818e-284
5.066055685285465354853971e-286
1.639715404225007701722683e-287
5.194411147964178643085393e-289
1.610176091683552513304461e-290
4.882875009843701613402217e-292
1.448221226331368020134642e-293
4.199899270010721758204734e-295
1.190612948809884609496422e-296
3.298439002029447448992382e-298
8.927417276424920662178142e-300
2.359885276834064611742706e-301
6.090686732085105600615953e-303
1.534294623368600082913536e-304
3.771108716156155161788476e-306
9.040475727211500032412727e-308
2.113064339039802542865328e-309
4.813525952224219377470028e-311
1.068231240181507253461097e-312
2.308514187787075065195274e-314
4.855907747764685145929485e-316
9.937389367627912366295416e-318
1.977102494962916295831375e-319
3.789483503602360993834283e-321
8.399115979301191251001669e-323
0
0
0
0
0
0
0
0
0
0
0
0
0
0
0
0
0
0
0
0
0
0
0
0
0
0
0
0
0
0
0
0
0
0
0
0
0
0
0
0
0
0
0
0
0
0
0
0
0
0
0
0
0
0
0
0
0
0
0
0
0
0
0
0
0
0
0
0
0
0
0
0
0
0
0
0
0
0
0
0
0
0
0
0
0
0
0
0
0
0
0
0
0
0
0
0
0
0
0
0
0
0
0
0
0
0
0
0
0
0
0
0
0
0
0
0
0
0
0
0
0
0
0
0
0
0
0
0
0
0
0
0
0
0
0
0
0
0
0
0
0
0