/*--------------------------------*- C++ -*----------------------------------*\
| =========                 |                                                 |
| \\      /  F ield         | OpenFOAM: The Open Source CFD Toolbox           |
|  \\    /   O peration     | Version:  v2012                                 |
|   \\  /    A nd           | Website:  www.openfoam.com                      |
|    \\/     M anipulation  |                                                 |
\*---------------------------------------------------------------------------*/
FoamFile
{
    version     2.0;
    format      ascii;
    class       volScalarField;
    location    "2.3";
    object      alpha.water;
}
// * * * * * * * * * * * * * * * * * * * * * * * * * * * * * * * * * * * * * //

dimensions      [0 0 0 0 0 0 0];


internalField   nonuniform List<scalar> 
96000
(
0
0
0
0
0
0
0
0
0
0
0
0
0
0
0
0
0
0
0
0
0
0
0
0
0
0
0
0
0
0
0
0
0
0
0
0
0
0
0
0
0
0
0
0
0
0
0
0
0
0
0
0
0
0
0
0
0
0
0
0
0
0
0
0
0
0
0
0
0
0
0
0
0
0
0
0
0
0
0
0
0
0
0
0
0
0
0
0
0
0
0
0
0
0
0
0
0
0
0
0
0
0
0
0
0
0
0
0
0
0
0
0
0
0
0
0
0
0
0
0
0
0
0
0
0
0
0
0
0
0
0
0
0
0
0
0
0
0
0
0
0
0
0
0
0
0
0
0
0
0
0
0
0
0
0
0
0
0
0
0
0
0
0
0
0
0
0
0
0
0
0
0
0
0
0
0
0
0
0
0
0
0
0
0
0
0
0
0
0
0
0
0
0
0
0
0
0
0
0
0
0
0
0
0
0
0
0
0
0
0
0
0
0
0
0
0
0
0
0
0
0
0
0
0
0
0
0
0
0
0
0
0
0
0
0
0
0
0
0
0
0
0
0
0
0
0
0
0
0
0
0
0
0
0
0
0
0
0
0
0
0
0
0
0
0
0
0
0
0
0
0
0
0
0
0
0
0
0
0
0
0
0
0
0
0
0
0
0
0
0
0
0
0
0
0
0
0
0
0
0
0
0
0
0
0
0
0
0
0
0
0
0
0
0
0
0
0
0
0
0
0
0
0
0
0
0
0
0
0
0
0
0
0
0
0
0
0
0
0
0
0
0
0
0
0
0
0
0
0
0
0
0
0
0
0
0
0
0
0
0
0
0
0
0
0
0
0
0
0
0
0
0
0
0
0
0
0
0
0
0
0
0
0
0
0
0
0
0
0
0
0
0
0
0
0
0
0
0
0
0
0
0
0
0
0
0
0
0
0
0
0
0
0
0
0
0
0
0
0
0
0
0
0
0
0
0
0
0
0
0
0
0
0
0
0
0
0
0
0
0
0
0
0
0
0
0
0
0
0
0
0
0
0
0
0
0
0
0
0
0
0
0
0
0
0
0
0
0
0
0
0
0
0
0
0
0
0
0
0
0
0
0
0
0
0
0
0
0
0
0
0
0
0
0
0
0
0
0
0
0
0
0
0
0
0
0
0
0
0
0
0
0
0
0
0
0
0
0
0
0
0
0
0
0
0
0
0
0
0
0
0
0
0
0
0
0
0
0
0
0
0
0
0
0
0
0
0
0
0
0
0
0
0
0
0
0
0
0
0
0
0
0
0
0
0
0
0
0
0
0
0
0
0
0
0
0
0
0
0
0
0
0
0
0
0
0
0
0
0
0
0
0
0
0
0
0
0
0
0
0
0
0
0
0
0
0
0
0
0
0
0
0
0
0
0
0
0
0
0
0
0
0
0
0
0
0
0
0
0
0
0
0
0
0
0
0
0
0
0
0
0
0
0
0
0
0
0
0
0
0
0
0
0
0
0
0
0
0
0
0
0
0
0
0
0
0
0
0
0
0
0
0
0
0
0
0
0
0
0
0
0
0
0
0
0
0
0
0
0
0
0
0
0
0
0
0
0
0
0
0
0
0
0
0
0
0
0
0
0
0
0
0
0
0
0
0
0
0
0
0
0
0
0
0
0
0
0
0
0
0
0
0
0
0
0
0
0
0
0
0
0
0
0
0
0
0
0
0
0
0
0
0
0
0
0
0
0
0
0
0
0
0
0
0
0
0
0
0
0
0
0
0
0
0
0
0
0
0
0
0
0
0
0
0
0
0
0
0
0
0
0
0
0
0
0
0
0
0
0
0
0
0
0
0
0
0
0
0
0
0
0
0
0
0
0
0
0
0
0
0
0
0
0
0
0
0
0
0
0
0
0
0
0
0
0
0
0
0
0
0
0
0
0
0
0
0
0
0
0
0
0
0
0
0
0
0
0
0
0
0
0
0
0
0
0
0
0
0
0
0
0
0
0
0
0
0
0
0
0
0
0
0
0
0
0
0
0
0
0
0
0
0
0
0
0
0
0
0
0
0
0
0
0
0
0
0
0
0
0
0
0
0
0
0
0
0
0
0
0
0
0
0
0
0
0
0
0
0
0
0
0
0
0
0
0
0
0
0
0
0
0
0
0
0
0
0
0
0
0
0
0
0
0
0
0
0
0
0
0
0
0
0
0
0
0
0
0
0
0
0
0
0
0
0
0
0
0
0
0
0
0
0
0
0
0
0
0
0
0
0
0
0
0
0
0
0
0
0
0
0
0
0
0
0
0
0
0
0
0
0
0
0
0
0
0
0
0
0
0
0
0
0
0
0
0
0
0
0
0
0
0
0
0
0
0
0
0
0
0
0
0
0
0
0
0
0
0
0
0
0
0
0
0
0
0
0
0
0
0
0
0
0
0
0
0
0
0
0
0
0
0
0
0
0
0
0
0
0
0
0
0
0
0
0
0
0
0
0
0
0
0
0
0
0
0
0
0
0
0
0
0
0
0
0
0
0
0
0
0
0
0
0
0
0
0
0
0
0
0
0
0
0
0
0
0
0
0
0
0
0
0
0
0
0
0
0
0
0
0
0
0
0
0
0
0
0
0
0
0
0
0
0
0
0
0
0
0
0
0
0
0
0
0
0
0
0
0
0
0
0
0
0
0
0
0
0
0
0
0
0
0
0
0
0
0
0
0
0
0
0
0
0
0
0
0
0
0
0
0
0
0
0
0
0
0
0
0
0
0
0
0
0
0
0
0
0
0
0
0
0
0
0
0
0
0
0
0
0
0
0
0
0
0
0
0
0
0
0
0
0
0
0
0
0
0
0
0
0
0
0
0
0
0
0
0
0
0
0
0
0
0
0
0
0
0
0
0
0
0
0
0
0
0
0
0
0
0
0
0
0
0
0
0
0
0
0
0
0
0
0
0
0
0
0
0
0
0
0
0
0
0
0
0
0
0
0
0
0
0
0
0
0
0
0
0
0
0
0
0
0
0
0
0
0
0
0
0
0
0
0
0
0
0
0
0
0
0
0
0
0
0
0
0
0
0
0
0
0
0
0
0
0
0
0
0
0
0
0
0
0
0
0
0
0
0
0
0
0
0
0
0
0
0
0
0
0
0
0
0
0
0
0
0
0
0
0
0
0
0
0
0
0
0
0
0
0
0
0
0
0
0
0
0
0
0
0
0
0
0
0
0
0
0
0
0
0
0
0
0
0
0
0
0
0
0
0
0
0
0
0
0
0
0
0
0
0
0
0
0
0
0
0
0
0
0
0
0
0
0
0
0
0
0
0
0
0
0
0
0
0
0
0
0
0
0
0
0
0
0
0
0
0
0
0
0
0
0
0
0
0
0
0
0
0
0
0
0
0
0
0
0
0
0
0
0
0
0
0
0
0
0
0
0
0
0
0
0
0
0
0
0
0
0
0
0
0
0
0
0
0
0
0
0
0
0
0
0
0
0
0
0
0
0
0
0
0
0
0
0
0
0
0
0
0
0
0
0
0
0
0
0
0
0
0
0
0
0
0
0
0
0
0
0
0
0
0
0
0
0
0
0
0
0
0
0
0
0
0
0
0
0
0
0
0
0
0
0
0
0
0
0
0
0
0
0
0
0
0
0
0
0
0
0
0
0
0
0
0
0
0
0
0
0
0
0
0
0
0
0
0
0
0
0
0
0
0
0
0
0
0
0
0
0
0
0
0
0
0
0
0
0
0
0
0
0
0
0
0
0
0
0
0
0
0
0
0
0
0
0
0
0
0
0
0
0
0
0
0
0
0
0
0
0
0
0
0
0
0
0
0
0
0
0
0
0
0
0
0
0
0
0
0
0
0
0
0
0
0
0
0
0
0
0
0
0
0
0
0
0
0
0
0
0
0
0
0
0
0
0
0
0
0
0
0
0
0
0
0
0
0
0
0
0
0
0
0
0
0
0
0
0
0
0
0
0
0
0
0
0
0
0
0
0
0
0
0
0
0
0
0
0
0
0
0
0
0
0
0
0
0
0
0
0
0
0
0
0
0
0
0
0
0
0
0
0
0
0
0
0
0
0
0
0
0
0
0
0
0
0
0
0
0
0
0
0
0
0
0
0
0
0
0
0
0
0
0
0
0
0
0
0
0
0
0
0
0
0
0
0
0
0
0
0
0
0
0
0
0
0
0
0
0
0
0
0
0
0
0
0
0
0
0
0
0
0
0
0
0
0
0
0
0
0
0
0
0
0
0
0
0
0
0
0
0
0
0
0
0
0
0
0
0
0
0
0
0
0
0
0
0
0
0
0
0
0
0
0
0
0
0
0
0
0
0
0
0
0
0
0
0
0
0
0
0
0
0
0
0
0
0
0
0
0
0
0
0
0
0
0
0
0
0
0
0
0
0
0
0
0
0
0
0
0
0
0
0
0
0
0
0
0
0
0
0
0
0
0
0
0
0
0
0
0
0
0
0
0
0
0
0
0
0
0
0
0
0
0
0
0
0
0
0
0
0
0
0
0
0
0
0
0
0
0
0
0
0
0
0
0
0
0
0
0
0
0
0
0
3.234693850129018592155554e-74
7.725060032476611627377614e-72
9.035062074339680543080235e-70
6.960092196992513562552626e-68
3.996455267394918018546083e-66
1.78179969829979932474165e-64
6.210385337823473670238427e-63
1.721879403775977570606557e-61
4.399740267407085426078336e-60
1.103364588555950728540773e-58
3.603653222964772010392789e-57
7.381504825559842747680354e-56
4.779742501711334660804231e-44
5.588613222464649247931072e-44
6.125923910603018418825754e-44
6.638168763437040913609358e-44
7.171927268906361756694479e-44
7.739600775649031719937221e-44
8.346135636432302446509138e-44
8.994854123110603915850679e-44
9.688831919660457768991236e-44
1.043123648197120211393222e-43
1.122541820481766442394372e-43
1.207494300723691222995416e-43
1.298361155232665862911957e-43
1.395547598980908079619783e-43
1.499485688037884370658313e-43
1.610636098885548292459122e-43
1.729490016637996345827912e-43
1.856571143556293604040841e-43
1.992437835438382872712411e-43
2.137685370986841778167582e-43
2.292948366460938994837059e-43
2.458903362830307364687373e-43
2.636271588639109732132841e-43
2.825821819758596211484201e-43
3.02837331741737953406631e-43
3.244799238610219219574336e-43
3.476030954132536167272934e-43
3.723061966322446191013417e-43
3.98694852363084787560934e-43
4.268809870523967752546874e-43
4.569842760513379621169265e-43
4.891352616153264088238594e-43
5.234746551688136564016748e-43
5.601422731845838496591245e-43
5.992691772356192561857986e-43
6.410118829314593760491673e-43
6.856237126737253684290325e-43
7.334215524812261138018546e-43
7.844975746076197502673424e-43
8.38476124298384405872343e-43
8.951541753227265639873227e-43
9.561058048006676567098598e-43
1.024961016264577921697314e-42
1.102297248288894406147069e-42
1.178540754356983503772005e-42
1.243002223499819849704492e-42
1.300903243192253078919704e-42
1.389306208090396039160866e-42
1.643147489585633499953489e-42
1.954828789890946272891143e-42
1.998693865679516747444454e-42
1.99856367451202539284083e-42
1.997888307478040743146534e-42
1.996308791773858639164589e-42
1.992627212928759292645864e-42
1.984637871557145427066883e-42
1.962933363132516033338619e-42
1.880133510244886693420024e-42
1.767562836086868592454663e-42
1.749792790376270488670508e-42
1.749691906057548674936104e-42
4.00640353508114439072739e-42
1.163725060747665627027669e-41
3.479133456272158574094232e-41
9.769582605960585141857721e-41
2.453544056001640411571332e-40
7.081604129188783241242561e-40
3.65134183625124989657871e-39
3.004228337431323653087954e-38
2.611308444262946952769367e-37
2.053053909959258785025395e-36
1.419681685394568332774034e-35
8.628968203702024738346695e-35
4.626295277494094173365116e-34
2.194642320731436821275801e-33
9.228364995123284348989731e-33
3.439307378177719517642612e-32
1.131096049609286654815856e-31
3.213934473822729398486903e-31
7.059538158611248454007219e-31
9.700947869239335926058142e-31
9.905071833533708854317604e-31
9.580236055799964603156741e-31
7.972541760719323248953181e-31
4.45111262172990997766246e-31
1.037892038397303016988657e-31
5.151326584093238344216325e-33
2.601430088319747212005433e-35
6.615787634752000125105305e-39
1.540127468150130648505608e-43
3.432853609433964441349351e-48
7.959664849735927807405611e-53
2.091760821106629269421764e-57
6.052975564807951327036999e-62
1.732736572762084250887486e-66
4.752267275658433040685484e-71
1.2890886046362927847387e-75
3.551763522014278687929488e-80
9.979311011644846519598302e-85
2.815822701561639687947578e-89
7.865231623432637179554747e-94
2.172686043067536126966834e-98
5.985777410106976938849658e-103
1.656175548503771155994578e-107
4.601531040272244225540915e-112
1.278223261257720351608274e-116
3.538639213400393108183934e-121
9.765678787559954923647838e-126
2.692378565017471711331826e-130
7.426264213023708264379738e-135
2.048797622287573441239261e-139
5.647303604872938605411319e-144
1.730955611681889227466445e-148
1.540501096048699177833296e-149
5.198930928070650435056477e-150
1.821922242344627881049944e-150
6.218461955662596060888149e-151
2.240850668149422028245698e-151
8.487706602105198183784812e-152
3.261152600181185344780499e-152
1.249765843210819016671608e-152
4.755615773443209827450099e-153
1.793360139623785105772789e-153
6.691047703894169090812875e-154
2.466141643319402034811613e-154
8.966090227891619134959922e-155
3.210994889847231933158798e-155
1.131234462441388686114182e-155
3.915738730130033422697466e-156
1.330299916235504805447172e-156
4.431459588299264093578736e-157
1.446282260596803645583298e-157
4.621419821388244661052176e-158
1.445029172260898678418727e-158
4.419468451661125606559675e-159
1.321642933611117414553323e-159
3.863728791769257609313693e-160
1.104025084598082861678282e-160
3.083124027731420481936171e-161
8.414466679675541821601033e-162
2.24434330168926174245101e-162
5.850578697057311959618562e-163
1.490692672699208731356652e-163
3.712792454311894364082844e-164
9.040416871247189497088411e-165
2.152336174376164669934084e-165
5.011058284744094117457035e-166
1.141075398181049036389771e-166
2.541766353567939214277672e-167
5.539446802481787269308414e-168
1.18135748488981880164828e-168
2.465790837275662753970321e-169
5.038109232681299340928464e-170
1.007841583359995904066462e-170
1.974273912618551076312395e-171
3.787826735598530386077658e-172
7.118974344140318616457452e-173
1.310890207393770942136092e-173
2.365449054392147790318939e-174
4.183463565098225411584866e-175
7.25287491735927755638262e-176
1.232857685459277648466151e-176
2.055044453621343246704167e-177
3.359791441281143874579736e-178
5.388453128627093559494357e-179
8.479207314541382460151175e-180
1.309379389578100848047643e-180
1.984613936601618381760072e-181
2.953044084798263155870981e-182
4.314522195666082445559469e-183
6.190890820937495933310334e-184
8.726185306014182094426355e-185
1.208498110439333348202763e-185
1.644850414151621835700939e-186
2.200841646235994624849905e-187
2.895876575732221933575304e-188
3.748766047161160104467098e-189
4.777226758263817088767906e-190
5.998475939185714522840051e-191
7.432512403518898841786822e-192
9.111418944525456107117522e-193
1.110171519564753661709094e-193
1.355459593297446302785178e-194
1.681525189588929621510752e-195
2.165641142283242364346045e-196
2.977085490021999778267777e-197
4.479878937266237903975073e-198
7.444881622111695708617894e-199
1.348315736996549689874872e-199
2.592225804952287923532211e-200
5.155956661330633618254352e-201
1.041335627532258008897977e-201
2.111235162989386470092197e-202
4.269278392852067037423402e-203
8.581336514476548962311973e-204
1.711456586737637328633772e-204
3.383722532543951575479934e-205
6.628965084152419030196074e-206
1.28654265990793014617308e-206
2.473359256860154119363277e-207
4.709971757633167156964276e-208
8.884123264321402220464968e-209
1.659892819460521628304084e-209
3.072007689877277273478323e-210
5.631845448119975691344288e-211
1.022764476607505280016507e-211
1.839957311905518990897088e-212
3.279124929156482174078833e-213
5.789448760004296547855964e-214
1.012643057782933704071828e-214
1.75479458834647061100602e-215
3.012711781470716444496774e-216
5.124610187385062001259967e-217
8.636672244865314699028837e-218
1.442197193224410834434669e-218
2.386192907048681671851875e-219
3.912002139696525144326275e-220
6.35499207056421749738806e-221
1.022970098421065564161685e-221
1.631745019937108094429485e-222
2.579243511240585001292668e-223
4.040100662400368986555036e-224
6.271345659716710360753179e-225
9.647321649002139234377468e-226
1.470749907731976757602116e-226
2.222109043005102704918751e-227
3.327320332557960066952069e-228
4.937813090952065162753292e-229
7.2626208520531310831039e-230
1.058713691685602322466032e-230
1.529669793723089860062509e-231
2.190575679275677483943041e-232
3.109334763138499000985354e-233
4.374540370988865127579724e-234
6.100423887560208802083921e-235
8.432512317576568008141868e-236
1.155393527335328837659992e-236
1.569225214488712504158558e-237
2.112658464340653783999026e-238
2.819473954618418107436691e-239
3.729989484217352273680484e-240
4.89163054966306280942141e-241
6.35933712074556987013282e-242
8.195730885095095075487489e-243
1.047096000470004661372823e-243
1.326213541488637652071355e-244
1.665227541138385592616942e-245
2.072868511976619407766831e-246
2.558071554427339426363931e-247
3.129687389061000014109986e-248
3.79612927176055224802105e-249
4.564960932510758436645866e-250
5.44243568066663905143776e-251
6.433002157663881342537305e-252
7.538797519401701429557218e-253
8.759153648760420089230342e-254
1.00901458443229215982531e-254
1.15242158124328106527167e-255
1.304990126038569760082575e-256
1.46517026013193242310146e-257
1.631011303724729268161156e-258
1.800183157699543319775298e-259
1.970016958033882268726979e-260
2.137565063464555883176286e-261
2.299679161433716890724499e-262
2.453104046825913638997569e-263
2.594583456033057556875704e-264
2.720973322260933380791358e-265
2.829357048016114541617287e-266
2.91715694398726423939164e-267
2.98223591386043970327833e-268
3.022983796435343250952602e-269
3.03838350124754050531539e-270
3.028053149553223984351052e-271
2.992261786093436331590573e-272
2.931917760702358099936171e-273
2.84853047861987311680002e-274
2.744147764361558399752378e-275
2.621272461374742623836675e-276
2.482762998984474582427932e-277
2.331723424008648687373185e-278
2.171388771911073725513652e-279
2.005011629772765901020701e-280
1.835755342037047319286722e-281
1.666598580704985981018475e-282
1.500255018536713253818722e-283
1.339110696167997536366413e-284
1.185180457539934638465865e-285
1.040083635738371892152907e-286
9.050380858712385782902757e-288
7.808707489976926864197459e-289
6.680422367721048979632733e-290
5.666824735389963482143067e-291
4.766342226678994078114327e-292
3.975013394521080546368381e-293
3.286988013775982801971038e-294
2.695019252557197003586702e-295
2.190926417779904153073884e-296
1.766012133465058891726455e-297
1.41142306204057531182762e-298
1.11844825401129584250048e-299
8.787536223385221336180561e-301
6.845546925236526637523841e-302
5.287325790502102374768045e-303
4.049000680991472481557979e-304
3.074257977602763739629928e-305
2.314249221830862765235011e-306
1.727244577105435683879143e-307
1.278108825858679974296468e-308
9.376664132135137584016353e-310
6.820112150577726611435457e-311
4.918053577030241427955522e-312
3.516004185039850222247487e-313
2.492043132712404559671879e-314
1.751085273057078578808513e-315
1.219832417701064550056498e-316
8.424209573453468162980397e-318
5.768117602067385153952605e-319
3.920410899750291328041073e-320
2.6926577698347936657623e-321
1.482196937523739632529706e-322
0
0
0
0
0
0
0
0
0
0
0
0
0
0
0
0
0
0
0
0
0
0
0
0
0
0
0
0
0
0
0
0
0
0
0
0
0
0
0
0
0
0
0
0
0
0
0
0
0
0
0
0
0
0
0
0
0
0
0
0
0
0
0
0
0
0
7.449190423461465390137022e-75
6.567060215036243441575481e-72
1.337975755624513534327039e-69
1.460694328872603096300705e-67
1.074928791826216402149754e-65
5.976065388738525524114945e-64
2.634801774175598621917704e-62
9.422397525195663302629374e-61
2.746234340666810805454883e-59
7.00720113732201014115067e-58
1.578424720898264079649794e-56
4.27709471592158014700876e-55
7.897370793806854378196447e-54
1.564344646044679729468335e-42
1.979885931994578098949451e-42
2.303022014711804521712217e-42
2.634392674992042809099169e-42
2.996400201486892370931333e-42
3.396929212378152545182782e-42
3.840774358281089487140351e-42
4.332242550056776663286331e-42
4.875794520753861264351252e-42
5.476222051127012086627558e-42
6.138714968663749561953994e-42
6.868903343209527128770286e-42
7.672895669643052366687522e-42
8.557318219728236673928875e-42
9.529356983243764004862889e-42
1.059680272166512468184003e-41
1.176809945585612502638752e-41
1.305239667335157270387314e-41
1.445960553438920433351845e-41
1.600045936709947336072712e-41
1.768657882236234111176582e-41
1.95305421391977020502262e-41
2.154596074004575926209091e-41
2.374755997357790081606518e-41
2.615126575683815654803516e-41
2.877430046606122427565577e-41
3.163528935298888319655696e-41
3.475436605690724418161537e-41
3.815326421622164303667172e-41
4.185543340424104900070893e-41
4.588627021589378748269447e-41
5.027340329781915602681794e-41
5.504662176378161540977496e-41
6.023725510804112850394185e-41
6.587831392245996077555198e-41
7.200751932169456186562297e-41
7.867105718151083614981179e-41
8.591835627398955966872795e-41
9.378363758410347436939861e-41
1.022802895962430781749276e-40
1.114517734842974615414989e-40
1.214558245332895706201521e-40
1.325325714065174322135479e-40
1.447160767546672347984793e-40
1.575535341908101451304691e-40
1.705179688962473770611066e-40
1.839811208126739783790983e-40
1.997078686762605890433678e-40
2.201544909962133505646782e-40
2.465052881986359271377637e-40
2.778843047513256639579986e-40
3.073591568285901866883788e-40
3.248556991051891622931608e-40
3.323069165446008122859614e-40
3.36287816978677757572144e-40
3.401376774706780792786222e-40
3.484870245421369827715856e-40
3.793436192986041000550046e-40
4.152099540749375211147633e-40
4.194134513179329157840035e-40
4.193619303536026453213471e-40
9.406118979927650474524492e-40
2.630599489978370645584116e-39
7.634367533539214223158979e-39
2.088612369551567777989012e-38
5.099203075952994727818712e-38
1.463963454040863750965444e-37
7.709369433833722701910755e-37
6.328345277191064428569621e-36
5.366451049751352031663889e-35
4.085418993972742763893091e-34
2.728263120547931190434375e-33
1.598947275893897941869275e-32
8.253484640300355029417817e-32
3.763092507446974407881128e-31
1.51760995377282978821707e-30
5.407890862752976874146325e-30
1.689693501758153255765682e-29
4.441881930504737618217095e-29
8.2368841055848331871259e-29
9.601948226811553163732351e-29
9.562810158030381511560295e-29
8.883965759544461038838455e-29
6.587005346253793268861967e-29
2.811124562966883002595091e-29
3.946794689810530301575631e-30
8.981662846659675656400718e-32
1.608999538491496987166756e-34
1.157540835650160839825815e-38
2.370216732155225740268148e-43
5.911095464401981854298353e-48
1.713197077080966480091605e-52
4.794826470845112269447096e-57
1.319586152932385861459496e-61
3.662999713447652141590584e-66
1.045332456082214189738826e-70
3.034564698935366436711732e-75
8.773990353398916309769773e-80
2.501941848538000849009281e-84
7.07212557612950829732239e-89
1.999980802830982010113839e-93
5.680543846005199697733465e-98
1.616769657539695150007765e-102
4.592638105794168658655813e-107
1.299728975526839351796128e-111
3.667962855627038433903905e-116
1.034026305948624476359522e-120
2.913932107351641892395041e-125
8.205560972363059631630244e-130
2.307042015515227588608152e-134
6.473816755344810929028804e-139
1.813421709144560224725784e-143
5.422116425818121815365016e-148
2.98943988325420801631874e-149
1.026339593485462885496102e-149
4.073162766213410366786705e-150
1.637813181952132133836e-150
6.78969811861454488777429e-151
2.859356637537128451668146e-151
1.199157574839940331217058e-151
4.965172970887782502039992e-152
2.024178984478206998680185e-152
8.114446309245221781893181e-153
3.195451215727299113990721e-153
1.235028462786077820955516e-153
4.680802737640792019009942e-154
1.738228834108762878642012e-154
6.319842861923230955640658e-155
2.248127205329560529090876e-155
7.819738575468975788293055e-156
2.658297630261946400356921e-156
8.828363968326325150172077e-157
2.863436125569637296631263e-157
9.068340214879895528641987e-158
2.803733005949951549182973e-158
8.462106962556257199897103e-159
2.493117017135843968690435e-159
7.170333132396059590503711e-160
2.013242701006330065909256e-160
5.518930470499807111982885e-161
1.477301297463275587289858e-161
3.861901216747952337740104e-162
9.860999376592122684458644e-163
2.459822168374959394891211e-163
5.995549754353523824158297e-164
1.428168383453201038962262e-164
3.325367630035927252478079e-165
7.570001004515772772030181e-166
1.685137154388929752017674e-166
3.668977360526429083018873e-167
7.814707533008065258410912e-168
1.628641829913869045497968e-168
3.321776680769094932213954e-169
6.631832827307971419120964e-170
1.296285595028136460794284e-170
2.481171993350988613503006e-171
4.651430555458759994480408e-172
8.542275668461999600238989e-173
1.537097360147499471537836e-173
2.71052193879219397140079e-174
4.685015097419348107457018e-175
7.938862359070676009356563e-176
1.31909958805908696025404e-176
2.14957266601265577964347e-177
3.436099819857180865815326e-178
5.388940353949708229863856e-179
8.293756074610856738039809e-180
1.252846128288858779525802e-180
1.857949509602722549574606e-181
2.705545186480019572837447e-182
3.869555572369903281928394e-183
5.437034752220421156797318e-184
7.507249432579497461680267e-185
1.018973920891547914754239e-185
1.360172730587906316675531e-186
1.786610568688457656873959e-187
2.311299943658566922982709e-188
2.949168018015923371206764e-189
3.720765800757261917422922e-190
4.66171349484007551725837e-191
5.844831707139214575498613e-192
7.429881040755023731334167e-193
9.772712600967231799996299e-194
1.366099460940395662861808e-194
2.081694015826552339781195e-195
3.495751324865773669588127e-196
6.400643387669371023139445e-197
1.246605636081052336093597e-197
2.517170807637957225022072e-198
5.169233067298290578070663e-199
1.066667384960751495940674e-199
2.196541311062909094988869e-200
4.497280459341808676006128e-201
9.137369260922409312443562e-202
1.840447708855144692018157e-202
3.673175076253169546706656e-203
7.262246863351886345106517e-204
1.422210454920654174571626e-204
2.758681803055210245728249e-205
5.300057608831845083814926e-206
1.0085671635518988123745e-206
1.90100059809528843807354e-207
3.549137372838684241335432e-208
6.563529078234542377809745e-209
1.202368113070494820742021e-209
2.18189821436517365260745e-210
3.922293820547960352066287e-211
6.984991944329409245168721e-212
1.232319425660242679443317e-212
2.153890406062466187070593e-213
3.729735298271773717963947e-214
6.398785408111639612171373e-215
1.087659779939096764980012e-215
1.831788282523968098237041e-216
3.056713203139300132953397e-217
5.05407485814219711601585e-218
8.280305996485595545052822e-219
1.344246280788072936329342e-219
2.162463908919646430254401e-220
3.4471970453815413427146e-221
5.44552854877957244345275e-222
8.524716707208962688976117e-223
1.322497859776018679980957e-223
2.033265310411898104646423e-224
3.098032327175499882855845e-225
4.678205071406459318368342e-226
7.001359918293900192554015e-227
1.03849316032354647231013e-227
1.526690641116593737464013e-228
2.224500562196190008866143e-229
3.212593736973675933786438e-230
4.598630110705954839257498e-231
6.524660717129850662302434e-232
9.175957820815215572794871e-233
1.279133803162903137899238e-233
1.767496421200771031930685e-234
2.420950193284078833102495e-235
3.287036253330939116080934e-236
4.424058732414487118432358e-237
5.902571924987879730736043e-238
7.806777668156011413352127e-239
1.023572011460184311022892e-239
1.330414142331400370416731e-240
1.714284114407969087125702e-241
2.189836696600117551764029e-242
2.773185808278299600912423e-243
3.481686782937184825592629e-244
4.333601237999791398097886e-245
5.347632949779627472838937e-246
6.542328693854295205855227e-247
7.935345410130149076803872e-248
9.542594112790079255361337e-249
1.137728131593398384586711e-249
1.34488798103643378086833e-250
1.576207163974411044579011e-251
1.831571616640829547819924e-252
2.110190417829159047483799e-253
2.410516405064544758784493e-254
2.730188711331129180076417e-255
3.066003585924116339562197e-256
3.413919003859408848043666e-257
3.769097198070135642120439e-258
4.125987408787839839192885e-259
4.478448923231377064178288e-260
4.819912008135137483886117e-261
5.143571786073763237950201e-262
5.442607666241449898735748e-263
5.71041881126933279040568e-264
5.940864493361336942843666e-265
6.128497225713814014782558e-266
6.2687763628744211356e-267
6.358250500576281814407822e-268
6.394698458245458890874586e-269
6.377220812818191847965306e-270
6.306276724008418465105392e-271
6.183663949665912443723643e-272
6.012443261903036510021996e-273
5.796811692888673677634952e-274
5.541931925307193144122083e-275
5.253727488285988228815659e-276
4.938655065594834267619424e-277
4.60346607120604519238528e-278
4.254969668338662995879182e-279
3.899808640523582479159827e-280
3.544258067167458544659991e-281
3.194054760808413909027661e-282
2.854263070874711912142524e-283
2.529180146049082431681756e-284
2.222281267316356350969667e-285
1.936203589347132089440683e-286
1.672764698778698052008641e-287
1.433010912178979627119377e-288
1.217289246323170520930361e-289
1.025336506485215595022797e-290
8.563789224643471059254278e-292
7.092361528797669552845071e-293
5.8242418963668285959529e-294
4.742526285620619903076831e-295
3.829128295036756717548832e-296
3.065545770792206065533978e-297
2.433498925619477519407769e-298
1.91543576571394890085723e-299
1.49490839308044567322385e-300
1.156829773808912796360847e-301
8.876247861413781166175638e-303
6.752918775726312079675176e-304
5.093926659090414685021633e-305
3.809865813927621867340921e-306
2.825264633710388285080129e-307
2.077291937984602523368642e-308
1.514332459245043856098532e-309
1.094526849797369977820165e-310
7.843486509661596062749556e-312
5.572695855798855117803781e-313
3.925461634034597223212882e-314
2.741454059592518754036124e-315
1.898154263217005986797769e-316
1.302969683838369036164214e-317
8.86996053978789920760194e-319
5.970783329991464486373834e-320
4.041456982981396731364333e-321
1.482196937523739632529706e-322
0
0
0
0
0
0
0
0
0
0
0
0
0
0
0
0
0
0
0
0
0
0
0
0
0
0
0
0
0
0
0
0
0
0
0
0
0
0
0
0
0
0
0
0
0
0
0
0
0
0
0
0
0
0
0
0
0
0
0
0
0
0
0
0
1.203386884666939888488733e-75
1.122131449292186468113471e-72
5.510031365399831727552675e-70
1.008161621863555477039101e-67
1.055009366250918302111181e-65
7.594672147046946741961408e-64
4.166635916160328678944774e-62
1.825661259123705349616381e-60
6.576360553003099154966046e-59
1.961924336275207654766925e-57
5.10707139804871195897452e-56
1.121663845360517713553067e-54
2.712700009486822251048546e-53
4.480626828746696470404337e-52
2.84764602382610994281949e-41
3.775790954218385416966413e-41
4.570443735854036994535259e-41
5.435370085509136605319832e-41
6.426463219630190921777499e-41
7.571991067994721406259003e-41
8.895482383534012178511754e-41
1.042120266871759531741486e-40
1.217566919815515128563477e-40
1.418822735638781419373572e-40
1.649141770098867190124435e-40
1.912131371167235093544756e-40
2.211787623168609427106986e-40
2.55253379817461657903258e-40
2.939262371532887437113024e-40
3.377380986316460786252762e-40
3.87286273058108626641651e-40
4.432301107935667208368612e-40
5.062970107016395848129604e-40
5.772889811117838739043013e-40
6.570898047268051162786402e-40
7.466728616608948096836144e-40
8.471096591815366290116386e-40
9.595791145291325846311147e-40
1.085377685205629574145235e-39
1.225930509416400116097412e-39
1.382803580926639131346247e-39
1.557716600326316154432398e-39
1.752556441936941560875704e-39
1.9693930519837822813885e-39
2.210500138022042504010893e-39
2.478376171789266470574434e-39
2.77575244029175111882569e-39
3.105591439442243971538018e-39
3.471128078107696072793611e-39
3.876000997613192349767555e-39
4.324348692688946192524748e-39
4.820567789543588531470102e-39
5.368776357771826447721779e-39
5.972968252410754382299475e-39
6.638918746209005101646988e-39
7.376402995480820016906556e-39
8.197138758565438225380294e-39
9.106121845970808209151678e-39
1.009506105681831550808545e-38
1.115363320164367282953463e-38
1.229600224290300032815824e-38
1.357761244728879841228446e-38
1.508758148264513924432293e-38
1.6917619870804905209661e-38
1.908655236108199503540865e-38
2.141411212563527780235891e-38
2.35262154130945817920377e-38
2.514814641921436209024003e-38
2.632493718350248131607733e-38
2.728502028871930350408492e-38
2.83452881409546332590243e-38
3.050074851946580522211811e-38
3.675192384339286404759889e-38
4.204163171000179975408246e-38
4.239444429716146973373529e-38
9.392840307304832893390054e-38
2.608198316802815084924455e-37
7.528955379715387766562314e-37
2.020200415699749020081772e-36
4.826875774553596937798738e-36
1.394318268737336116028658e-35
7.521000186069000895083712e-35
6.139380603227990802742261e-34
5.077702384971731963269121e-33
3.748705844384970399185263e-32
2.422545413546802570688062e-31
1.371863129230544356319167e-30
6.831919701903431615319433e-30
3.000000282499719156940612e-29
1.162585054103589801765739e-28
3.965663113826363237759511e-28
1.174106979120690802049133e-27
2.791295318620476626329088e-27
4.292955354859215433430917e-27
4.528708519541786590043849e-27
4.440161656427734387360085e-27
3.887223181376666990769473e-27
2.462675635507695527085742e-27
7.496424357245142304561374e-28
5.85331268582332944667267e-29
5.696063854086654525182853e-31
3.403805105038798073372299e-34
9.573637782263487507689276e-39
2.513830476443031572311345e-43
6.394476939298227279644535e-48
1.636565824607987087462809e-52
4.373434830403292823741699e-57
1.244864939258690192547894e-61
3.656540733714800816092643e-66
1.06140811451700538037117e-70
3.023465400447901510815596e-75
8.542716184843601793836915e-80
2.41928903848402833326177e-84
6.898244058503021104958265e-89
1.974476637378245062752379e-93
5.643594776363689762671341e-98
1.606680992111930120865158e-102
4.559787723992239851614182e-107
1.292787750985230746854344e-111
3.665980487701726564607198e-116
1.039449471763501828459066e-120
2.944414650447054240448857e-125