/*--------------------------------*- C++ -*----------------------------------*\
| =========                 |                                                 |
| \\      /  F ield         | OpenFOAM: The Open Source CFD Toolbox           |
|  \\    /   O peration     | Version:  v2012                                 |
|   \\  /    A nd           | Website:  www.openfoam.com                      |
|    \\/     M anipulation  |                                                 |
\*---------------------------------------------------------------------------*/
FoamFile
{
    version     2.0;
    format      ascii;
    class       volScalarField;
    location    "1.1";
    object      alpha.water;
}
// * * * * * * * * * * * * * * * * * * * * * * * * * * * * * * * * * * * * * //

dimensions      [0 0 0 0 0 0 0];


internalField   nonuniform List<scalar> 
96000
(
0
0
0
0
0
0
0
0
0
0
0
0
0
0
0
0
0
0
0
0
0
0
0
0
0
0
0
0
0
0
0
0
0
0
0
0
0
0
0
0
0
0
0
0
0
0
0
0
0
0
0
0
0
0
0
0
0
0
0
0
0
0
0
0
0
0
0
0
0
0
0
0
0
0
0
0
0
0
0
0
0
0
0
0
0
0
0
0
0
0
0
0
0
0
0
0
0
0
0
0
0
0
0
0
0
0
0
0
0
0
0
0
0
0
0
0
0
0
0
0
0
0
0
0
0
0
0
0
0
0
0
0
0
0
0
0
0
0
0
0
0
0
0
0
0
0
0
0
0
0
0
0
0
0
0
0
0
0
0
0
0
0
0
0
0
0
0
0
0
0
0
0
0
0
0
0
0
0
0
0
0
0
0
0
0
0
0
0
0
0
0
0
0
0
0
0
0
0
0
0
0
0
0
0
0
0
0
0
0
0
0
0
0
0
0
0
0
0
0
0
0
0
0
0
0
0
0
0
0
0
0
0
0
0
0
0
0
0
0
0
0
0
0
0
0
0
0
0
0
0
0
0
0
0
0
0
0
0
0
0
0
0
0
0
0
0
0
0
0
0
0
0
0
0
0
0
0
0
0
0
0
0
0
0
0
0
0
0
0
0
0
0
0
0
0
0
0
0
0
0
0
0
0
0
0
0
0
0
0
0
0
0
0
0
0
0
0
0
0
0
0
0
0
0
0
0
0
0
0
0
0
0
0
0
0
0
0
0
0
0
0
0
0
0
0
0
0
0
0
0
0
0
0
0
0
0
0
0
0
0
0
0
0
0
0
0
0
0
0
0
0
0
0
0
0
0
0
0
0
0
0
0
0
0
0
0
0
0
0
0
0
0
0
0
0
0
0
0
0
0
0
0
0
0
0
0
0
0
0
0
0
0
0
0
0
0
0
0
0
0
0
0
0
0
0
0
0
0
0
0
0
0
0
0
0
0
0
0
0
0
0
0
0
0
0
0
0
0
0
0
0
0
0
0
0
0
0
0
0
0
0
0
0
0
0
0
0
0
0
0
0
0
0
0
0
0
0
0
0
0
0
0
0
0
0
0
0
0
0
0
0
0
0
0
0
0
0
0
0
0
0
0
0
0
0
0
0
0
0
0
0
0
0
0
0
0
0
0
0
0
0
0
0
0
0
0
0
0
0
0
0
0
0
0
0
0
0
0
0
0
0
0
0
0
0
0
0
0
0
0
0
0
0
0
0
0
0
0
0
0
0
0
0
0
0
0
0
0
0
0
0
0
0
0
0
0
0
0
0
0
0
0
0
0
0
0
0
0
0
0
0
0
0
0
0
0
0
0
0
0
0
0
0
0
0
0
0
0
0
0
0
0
0
0
0
0
0
0
0
0
0
0
0
0
0
0
0
0
0
0
0
0
0
0
0
0
0
0
0
0
0
0
0
0
0
0
0
0
0
0
0
0
0
0
0
0
0
0
0
0
0
0
0
0
0
0
0
0
0
0
0
0
0
0
0
0
0
0
0
0
0
0
0
0
0
0
0
0
0
0
0
0
0
0
0
0
0
0
0
0
0
0
0
0
0
0
0
0
0
0
0
0
0
0
0
0
0
0
0
0
0
0
0
0
0
0
0
0
0
0
0
0
0
0
0
0
0
0
0
0
0
0
0
0
0
0
0
0
0
0
0
0
0
0
0
0
0
0
0
0
0
0
0
0
0
0
0
0
0
0
0
0
0
0
0
0
0
0
0
0
0
0
0
0
0
0
0
0
0
0
0
0
0
0
0
0
0
0
0
0
0
0
0
0
0
0
0
0
0
0
0
0
0
0
0
0
0
0
0
0
0
0
0
0
0
0
0
0
0
0
0
0
0
0
0
0
0
0
0
0
0
0
0
0
0
0
0
0
0
0
0
0
0
0
0
0
0
0
0
0
0
0
0
0
0
0
0
0
0
0
0
0
0
0
0
0
0
0
0
0
0
0
0
0
0
0
0
0
0
0
0
0
0
0
0
0
0
0
0
0
0
0
0
0
0
0
0
0
0
0
0
0
0
0
0
0
0
0
0
0
0
0
0
0
0
0
0
0
0
0
0
0
0
0
0
0
0
0
0
0
0
0
0
0
0
0
0
0
0
0
0
0
0
0
0
0
0
0
0
0
0
0
0
0
0
0
0
0
0
0
0
0
0
0
0
0
0
0
0
0
0
0
0
0
0
0
0
0
0
0
0
0
0
0
0
0
0
0
0
0
0
0
0
0
0
0
0
0
0
0
0
0
0
0
0
0
0
0
0
0
0
0
0
0
0
0
0
0
0
0
0
0
0
0
0
0
0
0
0
0
0
0
0
0
0
0
0
0
0
0
0
0
0
0
0
0
0
0
0
0
0
0
0
0
0
0
0
0
0
0
0
0
0
0
0
0
0
0
0
0
0
0
0
0
0
0
0
0
0
0
0
0
0
0
0
0
0
0
0
0
0
0
0
0
0
0
0
0
0
0
0
0
0
0
0
0
0
0
0
0
0
0
0
0
0
0
0
0
0
0
0
0
0
0
0
0
0
0
0
0
0
0
0
0
0
0
0
0
0
0
0
0
0
0
0
0
0
0
0
0
0
0
0
0
0
0
0
0
0
0
0
0
0
0
0
0
0
0
0
0
0
0
0
0
0
0
0
0
0
0
0
0
0
0
0
0
0
0
0
0
0
0
0
0
0
0
0
0
0
0
0
0
0
0
0
0
0
0
0
0
0
0
0
0
0
0
0
0
0
0
0
0
0
0
0
0
0
0
0
0
0
0
0
0
0
0
0
0
0
0
0
0
0
0
0
0
0
0
0
0
0
0
0
0
0
0
0
0
0
0
0
0
0
0
0
0
0
0
0
0
0
0
0
0
0
0
0
0
0
0
0
0
0
0
0
0
0
0
0
0
0
0
0
0
0
0
0
0
0
0
0
0
0
0
0
0
0
0
0
0
0
0
0
0
0
0
0
0
0
0
0
0
0
0
0
0
0
0
0
0
0
0
0
0
0
0
0
0
0
0
0
0
0
0
0
0
0
0
0
0
0
0
0
0
0
0
0
0
0
0
0
0
0
0
0
0
0
0
0
0
0
0
0
0
0
0
0
0
0
0
0
0
0
0
0
0
0
0
0
0
0
0
0
0
0
0
0
0
0
0
0
0
0
0
0
0
0
0
0
0
0
0
0
0
0
0
0
0
0
0
0
0
0
0
0
0
0
0
0
0
0
0
0
0
0
0
0
0
0
0
0
0
0
0
0
0
0
0
0
0
0
0
0
0
0
0
0
0
0
0
0
0
0
0
0
0
0
0
0
0
0
0
0
0
0
0
0
0
0
0
0
0
0
0
0
0
0
0
0
0
0
0
0
0
0
0
0
0
0
0
0
0
0
0
0
0
0
0
0
0
0
0
0
0
0
0
0
0
0
0
0
0
0
0
0
0
0
0
0
0
0
0
0
0
0
0
0
0
0
0
0
0
0
0
0
0
0
0
0
0
0
0
0
0
0
0
0
0
0
0
0
0
0
0
0
0
0
0
0
0
0
0
0
0
0
0
0
0
0
0
0
0
0
0
0
0
0
0
0
0
0
0
0
0
0
0
0
0
0
0
0
0
0
0
0
0
0
0
0
0
0
0
0
0
0
0
0
0
0
0
0
0
0
0
0
0
0
0
0
0
0
0
0
0
0
0
0
0
0
0
0
0
0
0
0
0
0
0
0
0
0
0
0
0
0
0
0
0
0
0
0
0
0
0
0
0
0
0
0
0
0
0
0
0
0
0
0
0
0
0
0
0
0
0
0
0
0
0
0
0
0
0
0
0
0
0
0
0
0
0
0
0
0
0
0
0
0
0
0
0
0
0
0
0
0
0
0
0
0
0
0
0
0
0
0
0
0
0
0
0
0
0
0
0
0
0
0
0
0
0
0
0
0
0
0
0
0
0
0
0
0
0
0
0
0
0
0
0
0
0
0
0
0
0
0
0
0
0
0
0
0
0
0
0
0
0
0
0
0
0
0
0
0
0
0
0
0
0
0
0
0
0
0
0
0
0
0
0
0
0
0
0
0
0
0
0
0
0
0
0
0
0
0
0
0
0
0
0
0
0
0
0
0
0
0
0
0
0
0
0
0
0
0
0
0
0
0
0
0
0
0
0
0
0
0
0
0
0
0
0
0
0
0
0
0
0
0
0
0
0
0
0
0
0
0
0
0
0
0
0
0
0
0
0
0
0
0
0
0
0
0
0
0
0
0
0
0
0
0
0
0
0
0
0
0
0
0
0
0
0
0
0
0
0
0
0
0
0
0
0
0
0
0
0
0
0
0
0
0
0
0
0
0
0
0
0
0
0
0
0
0
0
0
0
0
0
0
0
0
0
0
0
0
0
0
0
0
0
0
0
0
0
0
0
0
0
0
0
0
0
0
0
0
0
0
0
0
0
0
0
0
0
0
0
0
0
0
0
0
0
0
0
0
0
0
0
0
0
0
0
0
0
0
0
0
0
0
4.056908436517693086036223e-38
4.259480630720210354064838e-36
2.146633370200797628998581e-34
6.681566408546763863282735e-33
1.278281239796630927390655e-31
2.09350321773610737596616e-30
6.638286103531348314781606e-29
2.520808742225424199297183e-27
6.315362085647010239885277e-26
1.0053712598419113326929e-24
1.503703345320258680862777e-23
1.157422106278223373660186e-22
1.145836734715113789915204e-19
1.149504641501171543493658e-19
1.148946331393884694231363e-19
1.147932331177283165962421e-19
1.146974119103352565265462e-19
1.145818410439544663803588e-19
1.143883531461014691766997e-19
1.140562418441117510264304e-19
1.135227428216118523923656e-19
1.127205124887243505172703e-19
1.115817498218229758533408e-19
1.100431734667063301215493e-19
1.080467857932036970186419e-19
1.055385797086487917243707e-19
1.024811704353436331677158e-19
9.889280148787697357836654e-20
9.487301014616999879400466e-20
9.053043710243969616166213e-20
8.581142574453185351141401e-20
8.036350717756501029314403e-20
7.356999511020600124250606e-20
6.492621053997032825033363e-20
5.486182217204979418202225e-20
4.502517403944692739952538e-20
3.675780385018814797449602e-20
2.995322097883550625121818e-20
2.425023732167700831829938e-20
2.012948010419963774003445e-20
1.770200852652690972345229e-20
1.58100625592381801631042e-20
1.27642564810104518467049e-20
7.675115678837262133730305e-21
5.262474211264398972300934e-21
5.408436359957522150652005e-21
8.200680462366533091620882e-21
2.460398672314457557319901e-20
9.62131467126133090232177e-20
3.611609015994329096735246e-19
1.216404240145508145156314e-18
3.591455199709931248419698e-18
9.067677029508901742001921e-18
1.913577034225285840306411e-17
3.289265936518137364858244e-17
4.48616698857710164234749e-17
4.929495260845997827150702e-17
3.292978843822672038401627e-17
3.792773065298162922550728e-18
1.872690077763992800146808e-20
9.17312263928674247379064e-25
2.822762668607357118931099e-30
1.603781109802269221205453e-35
7.071575564566415643599722e-41
2.461603060356843085683547e-46
1.397565037460572031691814e-51
5.903209737521454231575625e-57
2.371047612581866464244637e-62
1.256021087470744060727965e-67
5.308950139256910819392242e-73
2.331589096787289799615419e-78
1.1778214160904151500557e-83
5.05337868272787709045541e-89
1.155866441226198093169939e-94
2.81528397479693470264131e-100
6.15398914753362144700623e-106
1.438960253933693741661419e-111
3.439571757642030365875452e-117
7.702218551607603749525816e-123
1.827384064848758184498001e-128
4.342334760424657138258163e-134
9.960520138979109968927541e-140
2.389933110457506885769935e-145
1.662998077490002328715226e-149
1.931297221284469424077551e-150
1.810712136746552530767074e-151
2.030926769255788243556192e-152
2.258553136377198651787973e-153
2.571284396870706903359785e-154
3.083164457355980726246009e-155
4.002565090220895327559066e-156
5.843728190239143377205322e-157
9.865270050826536319013535e-158
1.932562387526326664980036e-158
4.311100212964170011018796e-159
1.063707368180018547135534e-159
2.816458398056593546345506e-160
7.788527172530122835152696e-161
2.200507181232527892850686e-161
6.249053607130292525450684e-162
1.763720881425232096076588e-162
4.910735534724508837603919e-163
1.342478431058678962228807e-163
3.592716786627634652376301e-164
9.394999796531915393462112e-165
2.397977842930827728300541e-165
5.970139418304574056037451e-166
1.4493044566009359840035e-166
3.430040398466135435773413e-167
7.913833313375572510582566e-168
1.780092778318062843553597e-168
3.904007537137664929323649e-169
8.349319556668260071796608e-170
1.741544075832307281560281e-170
3.543543962466019888229671e-171
7.034640974592411443059738e-172
1.362791569837046831560524e-172
2.576816064918957318209774e-173
4.756488331015784608713835e-174
8.572742680206466734103782e-175
1.508908851487349865323021e-175
2.594140402093860248775116e-176
4.356986234297691024026444e-177
7.150123451123006118025087e-178
1.146687920497116386598464e-178
1.797414366264024420702629e-179
2.75414352631447217370448e-180
4.125927640208218163366507e-181
6.043823742502549122653035e-182
8.657904335424249634819504e-183
1.213046570169218098692319e-183
1.66247841742559139783149e-184
2.22892708044832324066095e-185
2.923760576286129603224214e-186
3.752632513595951604436787e-187
4.713225011255256416837965e-188
5.793290577276230938431196e-189
6.969346703569270427430595e-190
8.206361153826482582277669e-191
9.45868497331494595148781e-192
1.06723459857100862765954e-192
1.178862424430204948379829e-193
1.274862215171999248278949e-194
1.349835384309949036069204e-195
1.399374981854743971805039e-196
1.420493441888791425972441e-197
1.411920020075289891989246e-198
1.374226853404194903898499e-199
1.309766323565543687846097e-200
1.222429180628671867739264e-201
1.117257849670383152638687e-202
9.999680813365519167192531e-204
8.76441561450750715845853e-205
7.522511662274681246378367e-206
6.322702122487921701910648e-207
5.2039998330375402961925e-208
4.19429683789887364799759e-209
3.310235555237120597097914e-210
2.558143220550520650621617e-211
1.935723190810005692705537e-212
1.434161783942019428086275e-213
1.040330658439336960395222e-214
7.388268333441117603965414e-216
5.136760859247035983591531e-217
3.496122206086702564337631e-218
2.329202644220981516759272e-219
1.518874392914250520279011e-220
9.693898909864788042446974e-222
6.054842532627071332467625e-223
3.700821912697799755227715e-224
2.213325001060180749454234e-225
1.295096053639173377521212e-226
7.413512628287518319974787e-228
4.151108710840278070985147e-229
2.273380783937963740612117e-230
1.217574047878266994078006e-231
6.376434083234937063694707e-233
3.264831711868588685207036e-234
1.63411332078039375644395e-235
7.99423227965323530675677e-237
3.821870908247001417339155e-238
1.785286403024642014285165e-239
8.146982824107862399035748e-241
3.6313105157263528071706e-242
1.580609003551795382348944e-243
6.717269336123827233101085e-245
2.786614518081159830043959e-246
1.128186905241361869491219e-247
4.456612531736348927725439e-249
1.717288363977156830349683e-250
6.453361184819846240393483e-252
2.364382544964466458893218e-253
8.443406127045214911985443e-255
2.938049710222211395119067e-256
9.95885509784479997191402e-258
3.287224685769963347052766e-259
1.056265770822028618065251e-260
3.302842544844503608105878e-262
1.004645501925403305248621e-263
2.971526439649415378724719e-265
8.543014150650459754943845e-267
2.386280026237164090383407e-268
6.473137493816175419231705e-270
1.704455127936466793067999e-271
4.35428530038837369221518e-273
1.07864947470894583081616e-274
2.589613806040341573926677e-276
6.021802503726084880559306e-278
1.355457898384313037174858e-279
2.951407483796980618976964e-281
6.212332617674209183898145e-283
1.263115766310023648892365e-284
2.478878882980014524056631e-286
4.691701833621614214912684e-288
8.556264851026274113930576e-290
1.502127682041364221139192e-291
2.536064059286727864120829e-293
4.113156633756960688113221e-295
6.40101170374755310285177e-297
9.546388127004668649893458e-299
1.362583733997924226001881e-300
1.858619066918749962504918e-302
2.41900753501480769097592e-304
2.998891129534225731227527e-306
3.53468200808572218025526e-308
3.952927464042474945783067e-310
4.184955108251284425701841e-312
4.183976871612291195258028e-314
3.939301499719031389657664e-316
3.482258663048898655268967e-318
2.873979861858531147475101e-320
2.470328229206232720882844e-322
0
0
0
0
0
0
0
0
0
0
0
0
0
0
0
0
0
0
0
0
0
0
0
0
0
0
0
0
0
0
0
0
0
0
0
0
0
0
0
0
0
0
0
0
0
0
0
0
0
0
0
0
0
0
0
0
0
0
0
0
0
0
0
0
0
0
0
0
0
0
0
0
0
0
0
0
0
0
0
0
0
0
0
0
0
0
0
0
0
0
0
0
0
0
0
0
0
0
0
0
0
0
0
0
0
0
0
0
0
0
0
0
0
0
0
0
0
0
0
0
0
0
0
0
0
0
0
0
0
0
0
0
0
0
0
0
0
0
0
0
0
0
0
0
0
0
0
0
0
0
0
0
0
0
0
0
0
0
0
0
0
0
0
0
0
0
0
1.031756329919659596126373e-38
4.111585507073127606777716e-36
3.665381916172267039758083e-34
1.714699043762068863545216e-32
5.501218703516986698612598e-31
1.259663589747808568891477e-29
2.048045602588436856967586e-28
3.461898311678557596610585e-27
7.348217981523645041825865e-26
1.843967998687802469355174e-24
3.963190225458296253157507e-23
8.503670778814263032250089e-22
8.543062986397890497904609e-21
6.898339978624458145038356e-18
8.508483183192158717043395e-18
9.776187270417585385695322e-18
1.090618131967408726854329e-17
1.127946299094971036370064e-17
1.127741541535846112777294e-17
1.123159779379047806887521e-17
1.11430554533398833794696e-17
1.105962077124062948761216e-17
1.100885772201431529393219e-17
1.096819702438459946701937e-17
1.09098307610456707609149e-17
1.079959624541300168299794e-17
1.05972001517446652457519e-17
1.027728529484525706947293e-17
9.838640568680622073301459e-18
9.27423963243404994294372e-18
8.544766255447898916578354e-18
7.605791013872804425264979e-18
6.486293100264415437094383e-18
5.344480352355059481736226e-18
4.381457284763875800508413e-18
3.668165097315642725900619e-18
3.1199601912557490929578e-18
2.611482094563230618817383e-18
2.088885697078691223081862e-18
1.659623334604021130045307e-18
1.424464598357218961792836e-18
1.278400796607461216470943e-18
1.062802146314670332835851e-18
6.912797979576237212528197e-19
5.320349471561749081560535e-19
5.730403945340670398046731e-19
1.07419184933583847887014e-18
3.95713626092749687652703e-18
1.656168374658225097139532e-17
6.232945265462464485483454e-17
2.003083281290595769499099e-16
5.379418588005027580359582e-16
1.184839512245032690593662e-15
2.091838881560416856217268e-15
2.920052182104429831168907e-15
3.292946824844170560093882e-15
2.495811402473162129505483e-15
4.451776170496403968893574e-16
1.292651748828874015557693e-17
2.56214040891074212173639e-19
5.174510959923928786228274e-22
1.16517701249114667872933e-26
7.91620374192969109941581e-32
4.693459319478389991337601e-37
2.065192422020089151348666e-42
1.304147184098544459155915e-47
6.503700252761318228810583e-53
2.987462450196533277058153e-58
1.731518397447878145731967e-63
8.206937585497696641827728e-69
3.956949828583780760029353e-74
2.153794375354191868646168e-79
1.008017691997539316936342e-84
4.968376678904075026557403e-90
1.258260220236721058523813e-95
2.886505257908969231908213e-101
7.020360925507675039219657e-107
1.742098812335121435714733e-112
4.069266354758783196109368e-118
1.000287169453177321487379e-123
2.462507774208339000792801e-129
5.864054593990426010372548e-135
1.453377489031874361231564e-140
3.58070672497229162490809e-146
1.683719006808551319680997e-149
1.55480596005792583829414e-150
1.824434161919364327921321e-151
2.289131666793008767647419e-152
2.882786905428857377380642e-153
3.848016174446978433560963e-154
5.638903152523504134103873e-155
9.463234556270917656217285e-156
1.859919674396429159772865e-156
4.234007307669041888208782e-157
1.081208296279968966557069e-157
2.989685102358158238142418e-158
8.684237305787009603299042e-159
2.587633081853260252831883e-159
7.771263652439982724368215e-160
2.323457932012154495682926e-160
6.858708244995495545630394e-161
1.98835611349145299155531e-161
5.641933146622624232416837e-162
1.563654236667743730211648e-162
4.227549720403555402340732e-163
1.114185953303590088052925e-163
2.86141337055711476948625e-164
7.159548164575836694602384e-165
1.74527029249074723838095e-165
4.145168967488859371306296e-166
9.593587101873706855405587e-167
2.163978354841089728503878e-167
4.758198702261668284058982e-168
1.020096352843893906583625e-168
2.132767503948593783930396e-169
4.349564327399475698532219e-170
8.65454367239178233559826e-171
1.68048255288575494846656e-171
3.184995162409328802798017e-172
5.89331640777169684791645e-173
1.064818623349432052943673e-173
1.879067020648880157084126e-174
3.239235505745769042690483e-175
5.455771713715512217860929e-176
8.979660778780390644243465e-177
1.444532340587477258230347e-177
2.271582930015038640052011e-178
3.492458055764900089525535e-179
5.250483517989431759118652e-180
7.719587689543384389338093e-181
1.110130052896523125703917e-181
1.561686673341326527493228e-182
2.14934797297116235365039e-183
2.894423333889289816977186e-184
3.814229658215162381851075e-185
4.919097202452480677143652e-186
6.209254202782657974907789e-187
7.671990832874293315158969e-188
9.279571624064662993535401e-189
1.098836691763356694760925e-189
1.273959094887862928987618e-190
1.446186418901007954574322e-191
1.607557656584479121382051e-192
1.749875056181481056796794e-193
1.86538369068903450051503e-194
1.947467301231091239402326e-195
1.991274068995730031596911e-196
1.99419021374304736682583e-197
1.956097284737623756517627e-198
1.879378043868206161787868e-199
1.76867096949237454592622e-200
1.630408381403683325958064e-201
1.472201817010362734953944e-202
1.302155779768637564579077e-203
1.12819489201947019466651e-204
9.574801149714152562260102e-206
7.959698288873345784250552e-207
6.481556635187276075754892e-208
5.169760963539899694316705e-209
4.038875608826647528437661e-210
3.090563577896208787008848e-211
2.316265039445939147526149e-212
1.70018509626543962628801e-213
1.222203088778722953933574e-214
8.604178291482186932309466e-216
5.931597565155583296384404e-217
4.00410398670524780279474e-218
2.646569189397491445168571e-219
1.712678721461774019951048e-220
1.08505419991035945385317e-221
6.729387843798715423010156e-223
4.085183142418905513212267e-224
2.427281103701061747569319e-225
1.411429985463547853149793e-226
8.031281235619810631133109e-228
4.471460104199762528161667e-229
2.435583041000197168222665e-230
1.297755103465570272004618e-231
6.763367737214619762167024e-233
3.447108166326576568444762e-234
1.717934311537918538935321e-235
8.370526635851805684577328e-237
3.986806130353837974781006e-238
1.855887407016676350335462e-239
8.442222506652480807123815e-241
3.751987667282786830043532e-242
1.628854781307052369006371e-243
6.906095744043742679979717e-245
2.859043829644876872477824e-246
1.155450623158270697615207e-247
4.557473464365984215393169e-249
1.754018421092453761547553e-250
6.58523810212991507683378e-252
2.411132162908823527326889e-253
8.607205058993547304517781e-255
2.994804867723917550535931e-256
1.015331256980821527551392e-257
3.353057897511225162090287e-259
1.078258578900929760484716e-260
3.375209748083851900871204e-262
1.02805056262685763032687e-263
3.045762098218862714477446e-265
8.773416795485894698548234e-267
2.456107321624473096652586e-268
6.67938804863065166338275e-270
1.763727757222228635185368e-271
4.519765190564137080052588e-273
1.12347114710104094195883e-274
2.70725718010207075667919e-276
6.320698499904870038675098e-278
1.428896046860557065588451e-279
3.125738914958035806357764e-281
6.611819714311525554755727e-283
1.351409963705251624318137e-284
2.66693787301832063329099e-286
5.07736936325302904098954e-288
9.317120259962821321876985e-290
1.646391564390189390173753e-291
2.798700107418224347743184e-293
4.571763876829018588012328e-295
7.168258589431492944559187e-297
1.077472985585401837737837e-298
1.550530408239679919608864e-300
2.133077608790505852999213e-302
2.800941610548646287317075e-304
3.504544636160928252204111e-306
4.170432038392496804294684e-308
4.710505055218045318538955e-310
5.038694511229357086577401e-312
5.091649069910709817503029e-314
4.847264810389161299508932e-316
4.334111827639000709341881e-318
3.631382496933162099697781e-320
2.470328229206232720882844e-322
0
0
0
0
0
0
0
0
0
0
0
0
0
0
0
0
0
0
0
0
0
0
0
0
0
0
0
0
0
0
0
0
0
0
0
0
0
0
0
0
0
0
0
0
0
0
0
0
0
0
0
0
0
0
0
0
0
0
0
0
0
0
0
0
0
0
0
0
0
0
0
0
0
0
0
0
0
0
0
0
0
0
0
0
0
0
0
0
0
0
0
0
0
0
0
0
0
0
0
0
0
0
0
0
0
0
0
0
0
0
0
0
0
0
0
0
0
0
0
0
0
0
0
0
0
0
0
0
0
0
0
0
0
0
0
0
0
0
0
0
0
0
0
0
0
0
0
0
0
0
0
0
0
0
0
0
0
0
0
0
0
0
0
0
0
1.649919639542152251179687e-39
6.938497602572867776297771e-37
1.511581115886766894296326e-34
1.241594596709345406448526e-32
5.820192203852994777890015e-31
1.870975690829239907321739e-29
4.325656484126678400659082e-28
7.517301527327341370742759e-27
1.154546364106292643056693e-25
1.630739371384590647603072e-24
2.827320233171528050160857e-23
5.809644007261206872775952e-22
1.762939975895906127031765e-20
1.97230502888320277712897e-19
1.185525123870679939740248e-16
1.561233726199086028573737e-16
1.873556954094441642828899e-16
2.186387240570458865908773e-16
2.489881117210431681901243e-16
2.782306254091398713374321e-16
3.083783793854319849951868e-16
3.398066471726702095918071e-16
3.606509392194777799913594e-16
3.646807707368444533985734e-16
3.647019191681927076463691e-16
3.644674104953267059847551e-16
3.637644732764562664020755e-16
3.622332388780504952931432e-16
3.587479434173706237236667e-16
3.499934411414760257286269e-16
3.300174508928553062644044e-16
2.94733922862835579996759e-16
2.487718181873212593642609e-16
2.033291127296852881187042e-16
1.667486861987965302887776e-16
1.400693839256296388678723e-16
1.191615892118102993544061e-16
9.883058609298951450930454e-17
7.727995697802190952397694e-17
6.009704243900397601470322e-17
5.149507400385557918528307e-17
4.688521793451224164944487e-17
4.068002480654723744305464e-17
2.833536006585509956842706e-17
2.101035661606093955663659e-17
2.22842066932012134543082e-17
4.222772477619918204216568e-17
1.690865651600594877503204e-16
7.697085282100886145438681e-16
3.067741173146798706288556e-15
1.00715584445993322166613e-14
2.618108846529765366658043e-14
5.196291314826180607822616e-14
7.832666319458763206349243e-14
9.24900915542944481390914e-14
8.518152408041760382596693e-14
2.679435968347630437437004e-14
1.579639324469189982157339e-15
4.566760921482697337390501e-17
2.544020314482828564088957e-19
5.318470056676566184532513e-22
1.630291116240652939201508e-25
2.622090885025724414121683e-30
2.330378263894085639644761e-35
1.474360330769666141332469e-40
1.788211577943650384259026e-45
9.565745732606830235425823e-51
5.754820584382151276876751e-56
5.113698353894490340440977e-61
2.477898829051248875140705e-66
1.527525094517926205863858e-71
1.094180203689344295849363e-76
5.247332250934730661620164e-82
3.211643568659216100386613e-87
2.005564771245745179052273e-92
4.577201065164262057042879e-98
1.281351831427163781040417e-103
3.479168758083701716776694e-109
8.331260094861672687048904e-115
2.313026982940195596700713e-120
6.101302730706564457854685e-126
1.517961379227633969871396e-131
4.170796422059976317971652e-137
1.088871193022082874300972e-142
2.961201565660673008387993e-148
5.77102961527051751007169e-150
8.242271402914856940851045e-151
1.146613815368109615185621e-151
1.604078812991459854257671e-152
2.414911532139474824390146e-153
4.06180364385626507284129e-154
7.981051872477865614905376e-155
1.846246056269219681521118e-155
4.881005413424181656241936e-156
1.414234318472743848850915e-156
4.331790657309623815415609e-157
1.36579338159910895294928e-157
4.349556347230518463331179e-158
1.380740965251015134919342e-158
4.330179091581319145958486e-159
1.3337731827097161414125e-159
4.019945107033140229244561e-160
1.18281076240841123411481e-160
3.392839941120308752559753e-161
9.480228808180369451479696e-162
2.579301491135947434630441e-162
6.831887667039003804983646e-163
1.761696963698236560019857e-163
4.42297820333051584473823e-164
1.081337996386726567261641e-164
2.574894343845980773570209e-165
5.973214340803257645728875e-166
1.350247779740064307863802e-166
2.974984768339772090936036e-167
6.390460808410377968641217e-168
1.338645272979358035103838e-168
2.735224163588015293284765e-169
5.452809123100530883915873e-170
1.060841951247001321232045e-170
2.014577672620556914576984e-171
3.735225712792710549550768e-172
6.763044814338388421957774e-173
1.196051241753927187109923e-173
2.06645222296731965011772e-174
3.488601871522280206764211e-175
5.755814429562191271045434e-176
9.282541445308845122419777e-177
1.463537144885487105979027e-177
2.256243694691826377161471e-178
3.401567315464668289058369e-179
5.015857195302909670329987e-180
7.235081059321161972349693e-181
1.021009702677265462404886e-181
1.409800626475142967996562e-182
1.904921754248810002348701e-183
2.519043313389919697760485e-184
3.260452476673429933857892e-185
4.130911341786940557229614e-186
5.12364496802921924071306e-187
6.221773106534803745716045e-188
7.397510988741827147503937e-189
8.612420799197825506346863e-190
9.818892099401766044186889e-191
1.096287447936251500896521e-191
1.198769979670814075013136e-192
1.283864535416299447030473e-193
1.346773864884511411077472e-194
1.383822131031185044777559e-195
1.39280962621523128787188e-196
1.373228320106319631828205e-197
1.3263089566280792789409e-198
1.254893690476668540174894e-199
1.163152495113887642668773e-200
1.056182499448633895852378e-201
9.395434641377442651979527e-203
8.187876920659961660827891e-204
6.990385071157365887989181e-205
5.846595158749692610759934e-206
4.790399792338891694735816e-207
3.8450316180648984344145e-208
3.023277452756303754797939e-209
2.328597613808193285761261e-210
1.756853525803343208397823e-211
1.298331253909971528219778e-212
9.397803626673525475852417e-214
6.662511966642736374046409e-215
4.625920023155773643475509e-216
3.145445810745806893103704e-217
2.094418717378816723551538e-218
1.365566953014829609689678e-219
8.717647974379809227656207e-221
5.44864863320021627393494e-222
3.333844403990654258984607e-223
1.99678064477109602262154e-224
1.170584731407562439555686e-225
6.716131915298961425379247e-227
3.770797654646012732920465e-228
2.071552684352364754881575e-229
1.113411801759072975287965e-230
5.854074496326264391445332e-232
3.01054998539778325160735e-233
1.514112665935073137967771e-234
7.446149845041692412347031e-236
3.580138692551787209763539e-237
1.682644566652813966926584e-238
7.729224166309654728871424e-240
3.469391908617018491653498e-241
1.521472230719078700351549e-242
6.517534482108747417069678e-244
2.726608064474373702084995e-245
1.113754394149425309570349e-246
4.441057641858722838684649e-248
1.728271801618497553103809e-249
6.562358936749616939330732e-251
2.430630284361311367958615e-252
8.779550778833639829458423e-254
3.091705867725481833174699e-255
1.061130526966135049336998e-256
3.548546080015052903266764e-258
1.155853964712859191026163e-259
3.66589079464568008619184e-261
1.131686632202424992096392e-262
3.39923756381094545239978e-264
9.930614622357211299619565e-266
2.82053954153902592955617e-267
7.78507705061088252443746e-269
2.087237927249675778622936e-270
5.433163883001253805713853e-272
1.372423274899256599458252e-273
3.362395205560698608461812e-275
7.98533950132905486169191e-277
1.837245142791402429922561e-278
4.092613021713964962581678e-280
8.820827778928692381349678e-282
1.838194911050428464302208e-283
3.701072925257677805641277e-285
7.194128552772412725861111e-287
1.348908124905231524652922e-288
2.437563460296168520654161e-290
4.24120277515705935776044e-292
7.098126949936396773259163e-294
1.141435215547984111127803e-295
1.761605148217700615376884e-297
2.606002673423078948790152e-299
3.690347127185909999524082e-301
4.995232875113889676070144e-303
6.452941962406384854521007e-305
7.942023642383338704678543e-307
9.295367102727107429221598e-309
1.03247065924563005371495e-310
1.085902002865999638991353e-312
1.07877240214555213491148e-314
1.009489700145645592333236e-316
8.87099807764416582534471e-319
7.247943024491086803070264e-321
8.399115979301191251001669e-323
0
0
0
0
0
0
0
0
0
0
0
0
0
0
0
0
0
0
0
0
0
0
0
0
0
0
0
0
0
0
0
0
0
0
0
0
0
0
0
0
0
0
0
0
0
0
0
0
0
0
0
0
0
0
0
0
0
0
0
0
0
0
0
0
0
0
0
0
0
0
0
0
0
0
0
0
0
0
0
0
0
0
0
0
0
0
0
0
0
0
0
0
0
0
0
0
0
0
0
0
0
0
0
0
0
0
0
0
0
0
0
0
0
0
0
0
0
0
0
0
0
0
0
0
0
0
0
0
0
0
0
0
0
0
0
0
0
0
0
0
0
0
0
0
0
0
0
0
0
0
0
0
0
0
0
0
0
0
0
0
0
0
0
0
1.065358569904113054817403e-37
2.487408894896352039058985e-35
3.474378700725295834195e-33
2.578344696745702608961123e-31
1.167639084694553950380483e-29
3.606093051873718537436681e-28
8.12903181857524954977443e-27
1.445138461581743959512388e-25
2.275872254880816987592988e-24
3.156640492167224308759055e-23
4.188509403416319098403939e-22
6.138993667904789671846753e-21
1.498205146610713536438176e-19
1.702321866677778313007449e-18
2.253723487480218158941689e-15
2.94459025222117587376406e-15
3.522391384790173035387034e-15
4.132136365437798862252239e-15
4.805871259092734132628548e-15
5.601851669704097285285177e-15
6.563335688443993813440766e-15
7.413280272369232878767898e-15
7.75315222146308194764602e-15
7.813296734717142059901491e-15
7.835699078159479504118401e-15
7.854881102893727330747763e-15
7.860013561439227661878403e-15
7.824255155491991980049209e-15
7.604299315086972166081024e-15
7.057208716628724412205153e-15
6.228565667688423123438397e-15
5.299791832892780299178468e-15
4.439370702187269963519759e-15
3.752627715307711779961592e-15
3.234496432157253201430685e-15
2.771574277819776018225791e-15
2.230135513255764251248013e-15
1.640269593022790745723757e-15
1.265940776950958406161928e-15
1.142421044081520514290007e-15
1.099126430889331636421677e-15
1.047695916729485031580697e-15
8.841333139544608411125878e-16
5.986757231048995070291157e-16
5.578461723501773493084706e-16
7.722876758208119382139969e-16
2.638879381364642700574715e-15
1.302704988331278839915654e-14
5.840783322669873794873074e-14
2.121028519526120691640989e-13
5.766899064822010542923874e-13
1.093637659783667748394801e-12
1.468886697782669391785554e-12
1.543352848636435887820725e-12
8.857902575959616472056757e-13
1.1389446960805194536063e-13
4.672477880232168209353609e-15
5.039462724200249511648424e-17
1.777224236968024561275089e-19
8.66557428336310949022802e-23
1.387420556439587770304194e-26
7.510634414103158116963671e-31
1.132461245772726331042231e-35
1.113315356573056168179217e-40