/*--------------------------------*- C++ -*----------------------------------*\
| =========                 |                                                 |
| \\      /  F ield         | OpenFOAM: The Open Source CFD Toolbox           |
|  \\    /   O peration     | Version:  v2012                                 |
|   \\  /    A nd           | Website:  www.openfoam.com                      |
|    \\/     M anipulation  |                                                 |
\*---------------------------------------------------------------------------*/
FoamFile
{
    version     2.0;
    format      ascii;
    class       volScalarField;
    location    "2.1";
    object      alpha.water;
}
// * * * * * * * * * * * * * * * * * * * * * * * * * * * * * * * * * * * * * //

dimensions      [0 0 0 0 0 0 0];


internalField   nonuniform List<scalar> 
96000
(
0
0
0
0
0
0
0
0
0
0
0
0
0
0
0
0
0
0
0
0
0
0
0
0
0
0
0
0
0
0
0
0
0
0
0
0
0
0
0
0
0
0
0
0
0
0
0
0
0
0
0
0
0
0
0
0
0
0
0
0
0
0
0
0
0
0
0
0
0
0
0
0
0
0
0
0
0
0
0
0
0
0
0
0
0
0
0
0
0
0
0
0
0
0
0
0
0
0
0
0
0
0
0
0
0
0
0
0
0
0
0
0
0
0
0
0
0
0
0
0
0
0
0
0
0
0
0
0
0
0
0
0
0
0
0
0
0
0
0
0
0
0
0
0
0
0
0
0
0
0
0
0
0
0
0
0
0
0
0
0
0
0
0
0
0
0
0
0
0
0
0
0
0
0
0
0
0
0
0
0
0
0
0
0
0
0
0
0
0
0
0
0
0
0
0
0
0
0
0
0
0
0
0
0
0
0
0
0
0
0
0
0
0
0
0
0
0
0
0
0
0
0
0
0
0
0
0
0
0
0
0
0
0
0
0
0
0
0
0
0
0
0
0
0
0
0
0
0
0
0
0
0
0
0
0
0
0
0
0
0
0
0
0
0
0
0
0
0
0
0
0
0
0
0
0
0
0
0
0
0
0
0
0
0
0
0
0
0
0
0
0
0
0
0
0
0
0
0
0
0
0
0
0
0
0
0
0
0
0
0
0
0
0
0
0
0
0
0
0
0
0
0
0
0
0
0
0
0
0
0
0
0
0
0
0
0
0
0
0
0
0
0
0
0
0
0
0
0
0
0
0
0
0
0
0
0
0
0
0
0
0
0
0
0
0
0
0
0
0
0
0
0
0
0
0
0
0
0
0
0
0
0
0
0
0
0
0
0
0
0
0
0
0
0
0
0
0
0
0
0
0
0
0
0
0
0
0
0
0
0
0
0
0
0
0
0
0
0
0
0
0
0
0
0
0
0
0
0
0
0
0
0
0
0
0
0
0
0
0
0
0
0
0
0
0
0
0
0
0
0
0
0
0
0
0
0
0
0
0
0
0
0
0
0
0
0
0
0
0
0
0
0
0
0
0
0
0
0
0
0
0
0
0
0
0
0
0
0
0
0
0
0
0
0
0
0
0
0
0
0
0
0
0
0
0
0
0
0
0
0
0
0
0
0
0
0
0
0
0
0
0
0
0
0
0
0
0
0
0
0
0
0
0
0
0
0
0
0
0
0
0
0
0
0
0
0
0
0
0
0
0
0
0
0
0
0
0
0
0
0
0
0
0
0
0
0
0
0
0
0
0
0
0
0
0
0
0
0
0
0
0
0
0
0
0
0
0
0
0
0
0
0
0
0
0
0
0
0
0
0
0
0
0
0
0
0
0
0
0
0
0
0
0
0
0
0
0
0
0
0
0
0
0
0
0
0
0
0
0
0
0
0
0
0
0
0
0
0
0
0
0
0
0
0
0
0
0
0
0
0
0
0
0
0
0
0
0
0
0
0
0
0
0
0
0
0
0
0
0
0
0
0
0
0
0
0
0
0
0
0
0
0
0
0
0
0
0
0
0
0
0
0
0
0
0
0
0
0
0
0
0
0
0
0
0
0
0
0
0
0
0
0
0
0
0
0
0
0
0
0
0
0
0
0
0
0
0
0
0
0
0
0
0
0
0
0
0
0
0
0
0
0
0
0
0
0
0
0
0
0
0
0
0
0
0
0
0
0
0
0
0
0
0
0
0
0
0
0
0
0
0
0
0
0
0
0
0
0
0
0
0
0
0
0
0
0
0
0
0
0
0
0
0
0
0
0
0
0
0
0
0
0
0
0
0
0
0
0
0
0
0
0
0
0
0
0
0
0
0
0
0
0
0
0
0
0
0
0
0
0
0
0
0
0
0
0
0
0
0
0
0
0
0
0
0
0
0
0
0
0
0
0
0
0
0
0
0
0
0
0
0
0
0
0
0
0
0
0
0
0
0
0
0
0
0
0
0
0
0
0
0
0
0
0
0
0
0
0
0
0
0
0
0
0
0
0
0
0
0
0
0
0
0
0
0
0
0
0
0
0
0
0
0
0
0
0
0
0
0
0
0
0
0
0
0
0
0
0
0
0
0
0
0
0
0
0
0
0
0
0
0
0
0
0
0
0
0
0
0
0
0
0
0
0
0
0
0
0
0
0
0
0
0
0
0
0
0
0
0
0
0
0
0
0
0
0
0
0
0
0
0
0
0
0
0
0
0
0
0
0
0
0
0
0
0
0
0
0
0
0
0
0
0
0
0
0
0
0
0
0
0
0
0
0
0
0
0
0
0
0
0
0
0
0
0
0
0
0
0
0
0
0
0
0
0
0
0
0
0
0
0
0
0
0
0
0
0
0
0
0
0
0
0
0
0
0
0
0
0
0
0
0
0
0
0
0
0
0
0
0
0
0
0
0
0
0
0
0
0
0
0
0
0
0
0
0
0
0
0
0
0
0
0
0
0
0
0
0
0
0
0
0
0
0
0
0
0
0
0
0
0
0
0
0
0
0
0
0
0
0
0
0
0
0
0
0
0
0
0
0
0
0
0
0
0
0
0
0
0
0
0
0
0
0
0
0
0
0
0
0
0
0
0
0
0
0
0
0
0
0
0
0
0
0
0
0
0
0
0
0
0
0
0
0
0
0
0
0
0
0
0
0
0
0
0
0
0
0
0
0
0
0
0
0
0
0
0
0
0
0
0
0
0
0
0
0
0
0
0
0
0
0
0
0
0
0
0
0
0
0
0
0
0
0
0
0
0
0
0
0
0
0
0
0
0
0
0
0
0
0
0
0
0
0
0
0
0
0
0
0
0
0
0
0
0
0
0
0
0
0
0
0
0
0
0
0
0
0
0
0
0
0
0
0
0
0
0
0
0
0
0
0
0
0
0
0
0
0
0
0
0
0
0
0
0
0
0
0
0
0
0
0
0
0
0
0
0
0
0
0
0
0
0
0
0
0
0
0
0
0
0
0
0
0
0
0
0
0
0
0
0
0
0
0
0
0
0
0
0
0
0
0
0
0
0
0
0
0
0
0
0
0
0
0
0
0
0
0
0
0
0
0
0
0
0
0
0
0
0
0
0
0
0
0
0
0
0
0
0
0
0
0
0
0
0
0
0
0
0
0
0
0
0
0
0
0
0
0
0
0
0
0
0
0
0
0
0
0
0
0
0
0
0
0
0
0
0
0
0
0
0
0
0
0
0
0
0
0
0
0
0
0
0
0
0
0
0
0
0
0
0
0
0
0
0
0
0
0
0
0
0
0
0
0
0
0
0
0
0
0
0
0
0
0
0
0
0
0
0
0
0
0
0
0
0
0
0
0
0
0
0
0
0
0
0
0
0
0
0
0
0
0
0
0
0
0
0
0
0
0
0
0
0
0
0
0
0
0
0
0
0
0
0
0
0
0
0
0
0
0
0
0
0
0
0
0
0
0
0
0
0
0
0
0
0
0
0
0
0
0
0
0
0
0
0
0
0
0
0
0
0
0
0
0
0
0
0
0
0
0
0
0
0
0
0
0
0
0
0
0
0
0
0
0
0
0
0
0
0
0
0
0
0
0
0
0
0
0
0
0
0
0
0
0
0
0
0
0
0
0
0
0
0
0
0
0
0
0
0
0
0
0
0
0
0
0
0
0
0
0
0
0
0
0
0
0
0
0
0
0
0
0
0
0
0
0
0
0
0
0
0
0
0
0
0
0
0
0
0
0
0
0
0
0
0
0
0
0
0
0
0
0
0
0
0
0
0
0
0
0
0
0
0
0
0
0
0
0
0
0
0
0
0
0
0
0
0
0
0
0
0
0
0
0
0
0
0
0
0
0
0
0
0
0
0
0
0
0
0
0
0
0
0
0
0
0
0
0
0
0
0
0
0
0
0
0
0
0
0
0
0
0
0
0
0
0
0
0
0
0
0
0
0
0
0
0
0
0
0
0
0
0
0
0
0
0
0
0
0
0
0
0
0
0
0
0
0
0
0
0
0
0
0
0
0
0
0
0
0
0
0
0
0
0
0
0
0
0
0
0
0
0
0
0
0
0
0
0
0
0
0
0
0
0
0
0
0
0
0
0
0
0
0
0
0
0
0
0
0
0
0
0
0
0
0
0
0
0
0
0
0
0
0
0
0
0
0
0
0
0
0
0
0
0
0
0
0
0
0
0
0
0
0
0
0
0
0
0
0
0
0
0
0
0
0
0
0
0
0
0
0
0
0
0
0
0
0
0
0
0
0
0
0
0
0
0
0
0
0
0
0
0
0
0
0
0
0
0
0
0
0
0
0
0
0
0
0
0
0
0
0
0
0
0
0
0
0
0
0
0
0
0
0
0
0
0
0
0
0
0
0
0
0
0
0
0
0
0
0
0
0
0
0
0
0
0
0
0
0
0
0
0
0
0
0
0
0
0
0
0
0
0
0
0
0
0
0
0
0
0
0
0
0
0
0
0
0
0
0
0
0
0
0
0
0
0
0
0
0
0
0
0
0
0
0
0
0
0
0
0
0
0
0
0
0
0
0
5.495491471922716419240968e-68
1.17994607289992402577126e-65
1.239366564132731563508082e-63
8.577026574354005180159098e-62
4.408582365115409757391653e-60
1.724204075632469931491496e-58
5.142158345989834082915025e-57
1.257457840386859766110019e-55
3.173809923086356324722404e-54
8.424735637439929567404146e-53
2.83607142948118409874605e-51
5.479568225064042934284654e-50
7.172567556979980618141627e-40
8.375490428950997896075024e-40
9.172440101075352110009757e-40
9.931443001818572442504023e-40
1.072189238142895205189532e-39
1.156220710183603124384194e-39
1.245968778973357903817857e-39
1.341920829595732105591685e-39
1.444526825272521880485713e-39
1.554249681954456792277928e-39
1.6715787973238920770557e-39
1.797034843338668085827715e-39
1.931172564260487957465458e-39
2.074583202570412713342645e-39
2.227896930393785596531824e-39
2.391785382678734376971909e-39
2.566964419259586301674209e-39
2.754197207577496978710277e-39
2.954297201245511598136373e-39
3.168130390425392815893071e-39
3.396618501953108381029927e-39
3.640747319228202426078368e-39
3.901575838230921018951688e-39
4.180224470326874299227675e-39
4.477841736044765083797138e-39
4.795640060249334039258052e-39
5.135090565027716356734997e-39
5.498009854410107793150178e-39
5.885912543273642354292079e-39
6.298950387783259088549443e-39
6.737092999104499993749667e-39
7.205386904336864666747133e-39
7.716647225273227968907536e-39
8.277169050480937478251987e-39
8.857938081020173218655184e-39
9.410053064639457218105754e-39
9.960691745506685126159522e-39
1.069902453851488785200471e-38
1.201710215933118417459218e-38
1.391136717596198561060902e-38
1.492174045356150478189716e-38
1.501107981967703555745019e-38
1.50077317669387594261952e-38
1.499106300160077044789693e-38
1.494734132526971509774812e-38
1.485331432092570306587382e-38
1.464805835569159925465346e-38
1.421164980003263094603271e-38
1.360786201798389305103623e-38
1.332108132473537384626006e-38
1.32964020855726298412914e-38
1.329632833957352034687745e-38
1.329710813863052300587689e-38
1.330100161707297033619436e-38
1.331028775486530559920494e-38
1.331680930834542147575906e-38
1.331700671027256383590627e-38
1.331093277428157971434789e-38
1.327761856109547047844292e-38
1.319526363045754523976344e-38
1.282013020543320869463155e-38
2.743222069162135489353382e-38
6.705020339640171998699243e-38
1.592732229559080314241269e-37
6.578999907044821181893481e-37
6.155293948838811423738251e-36
6.617904522835937828306534e-35
6.115786932000641855653992e-34
4.713919940405066501845747e-33
3.056879802613722253885656e-32
1.684457629590653722119636e-31
7.940263360971003498471549e-31
3.20863995314481750117906e-30
1.101139312100892311129869e-29
3.046471070612507562802831e-29
5.823205891668659753096089e-29
6.960170594161330474374652e-29
6.900912127887128434749026e-29
6.179350994001164380413331e-29
4.125088690760299564398229e-29
1.445976355177536138755776e-29
1.57369161071584472926695e-30
2.875840928369566680487349e-32
4.838709499539084355649357e-35
4.31159305114697013424037e-39
1.09562392194027974520113e-43
2.92730185519019802805776e-48
8.464411774370088472858322e-53
2.45680203847740881344379e-57
6.807177783799358406746428e-62
1.830553105530122334516669e-66
4.937174698389180751274178e-71
1.357172078406695662158955e-75
3.773650673693302378663114e-80
1.044284088723972737428458e-84
2.855993879516372772065516e-89
7.758249060050540351280104e-94
2.110370430444636812852432e-98
5.763516376120143629373657e-103
1.575126263548399092674877e-107
4.289882824961529603999928e-112
1.163043033698601396522874e-116
3.14397984603534159493097e-121
8.489906947098891853914402e-126
2.290820158741712597686723e-130
6.170149684212331621604323e-135
1.6571529410313810249566e-139
4.437036043897217629272727e-144
1.281713770146218097885188e-148
9.135725089973662586704106e-150
2.938194620583381486857397e-150
1.109212123197284833481897e-150
4.154840835325948047064575e-151
1.552994671998180577842098e-151
5.773460185289672643615157e-152
2.120429435383747830956687e-152
7.663424010097685136873517e-153
2.718512435621115134228042e-153
9.444940933735649577166326e-154
3.207657385090405795287065e-154
1.063137830116954732145623e-154
3.434205003832612885277801e-155
1.080044605592295763538982e-155
3.304381321042217203012152e-156
9.829299447313547940423098e-157
2.84165918272755542250114e-157
7.982508219998317020250029e-158
2.178615619752814666402096e-158
5.776906327058843541945565e-159
1.488392331194242887072837e-159
3.726553377161556257074883e-160
9.068715536528323588245536e-161
2.145500640354959988949587e-161
4.935863817988853340813795e-162
1.104497571292516549728784e-162
2.404665626963691245770056e-163
5.095164857641282824067273e-164
1.051001525023305143813517e-164
2.111152603861496446770985e-165
4.130833196684836498709904e-166
7.875687908351707661143743e-167
1.463535956506251925161658e-167
2.651634513835796971852014e-168
4.68544296230282945586082e-169
8.076921955689572676358638e-170
1.35872394674489884266197e-170
2.231203684156784786799798e-171
3.577696026427851331300971e-172
5.603495366957777888421975e-173
8.575179352110627701815032e-174
1.282614422714121457863364e-174
1.87569194478858663034491e-175
2.682797314310695463119166e-176
3.754305185636652257643427e-177
5.142195371214159876639505e-178
6.896304910744636560437463e-179
9.059778900816816882959467e-180
1.166417841634852954459185e-180
1.472497953345109606586527e-181
1.823855478795111029931459e-182
2.218231495532486758295984e-183
2.652089769246823927324538e-184
3.122404716982633104237213e-185
3.630820542358134996394921e-186
4.192833183965309191481115e-187
4.85787101418009553572333e-188
5.753184132143841021060545e-189
7.179546075822881877485302e-190
9.818696973723478158931081e-191
1.51790856751535195682779e-191
2.654374492265768898077221e-192
5.096339854921467284665252e-193
1.033988609678947418446769e-193
2.152293785461971300549718e-194
4.515222986218540161453559e-195
9.456717887953248233917535e-196
1.968054603222637059922043e-196
4.060501416853191293979689e-197
8.29656423550300841307618e-198
1.67793065868043571706708e-198
3.358212551175436219364271e-199
6.650586667950285579991151e-200
1.303216267326566756994272e-200
2.526845017961150590814901e-201
4.847902329156958772719601e-202
9.203503504180143923037645e-203
1.728976795123511490049985e-203
3.214217265468315753133193e-204
5.913235523634094990751922e-205
1.076596464341328574906401e-205
1.93986941437929043743068e-206
3.459375433808820461267593e-207
6.105796363902290922297523e-208
1.066645156468747704969293e-208
1.844353178315106229124336e-209
3.156660971245429977522248e-210
5.347916047847254688833419e-211
8.968645582806494853179244e-212
1.488906494690603028312529e-212
2.446913912600617471542255e-213
3.981006268894249925468436e-214
6.412124045991842397213512e-215
1.022486548915730354446263e-215
1.61425243185052162996409e-216
2.523217850205036996835169e-217
3.904977778689325579298889e-218
5.983754155754595942418657e-219
9.078850871588056186177682e-220
1.36395602287281725032991e-220
2.029048137575914953484622e-221
2.988936959833097522746275e-222
4.359967799266433647839607e-223
6.297981839753349736033644e-224
9.009078532160133715193175e-225
1.276230783916115688763873e-225
1.790427505924091438211596e-226
2.487548378620934544805431e-227
3.422803513752168141166618e-228
4.664404373645149646531848e-229
6.295382861998749566892824e-230
8.415260287293485790535677e-231
1.114140401890919053602108e-231
1.460987693377467505825808e-232
1.897555766642279561127433e-233
2.441129270744240718934395e-234
3.110583940476564550943144e-235
3.926037670606601632140549e-236
4.908340219790020005314904e-237
6.078390250470683663926354e-238
7.45627802682207861407239e-239
9.060264296340562959459447e-240
1.090562018381300455875682e-240
1.300336850824667560385709e-241
1.535898265426046266812225e-242
1.797111358670662990040245e-243
2.083042722471633051908436e-244
2.391864159890122493262365e-245
2.720785455927955840431213e-246
3.066024716723068595058165e-247
3.422823468431127434072038e-248
3.785511630702208337074641e-249
4.147624727575589845120697e-250
4.502072425342494691318004e-251
4.84135391627899648324988e-252
5.157812076331768185624805e-253
5.443915021185133426129895e-254
5.692550976562066036968789e-255
5.897320541823000493781127e-256
6.052809675094352144267227e-257
6.154827188958955124617889e-258
6.200592237127797821119625e-259
6.188860100109810009413824e-260
6.119978338944218242376887e-261
5.995869787307520953134613e-262
5.819943537407207645126382e-263
5.596939660101083429631694e-264
5.332717511053712346444884e-265
5.034000786563292100823869e-266
4.708094757851498744794507e-267
4.362592185225834798647702e-268
4.005084259607144679272596e-269
3.642891614734096696546078e-270
3.282828172416010001678685e-271
2.931007573398590333646229e-272
2.59269850116656512771857e-273
2.272231632568125201340204e-274
1.972957538209421882541324e-275
1.697251855136975995251195e-276
1.446561650824374058937728e-277
1.221485204881289320780439e-278
1.021876492784918622272887e-279
8.469654350781238039799345e-281
6.954853899398026628237268e-282
5.658002900329989802720375e-283
4.560251063386624958366542e-284
3.641348068412174920267478e-285
2.880585204695974141771509e-286
2.25757091668119662943474e-287
1.75283522009711000983445e-288
1.348268778594330420535137e-289
1.027410641890743092601274e-290
7.756041920303387258254412e-292
5.80043900359298317005657e-293
4.29736401546933991246879e-294
3.153985753811386851654314e-295
2.293132607132915099255484e-296
1.651603635383905809349276e-297
1.178378674893810214227231e-298
8.328394218867619108383406e-300
5.830822266837510065149453e-301
4.043756911737908186788052e-302
2.777930410244796150641024e-303
1.890309626020350413935421e-304
1.274130073613719064758916e-305
8.506631008529916535425919e-307
5.62545941284596762527856e-308
3.684752535368642462097186e-309
2.390571485546615919146049e-310
1.536141273963128637810178e-311
9.776633146793760355292622e-313
6.162667359271672154368177e-314
3.847349717088715309029534e-315
2.378812548440187791754327e-316
1.456653743633747186195778e-317
8.833844341076904085222632e-319
5.312193824085082842986468e-320
3.211426697968102537147697e-321
2.470328229206232720882844e-322
0
0
0
0
0
0
0
0
0
0
0
0
0
0
0
0
0
0
0
0
0
0
0
0
0
0
0
0
0
0
0
0
0
0
0
0
0
0
0
0
0
0
0
0
0
0
0
0
0
0
0
0
0
0
0
0
0
0
0
0
0
0
0
0
0
0
0
0
0
0
0
0
0
0
0
0
0
0
0
1.282707764742003995606065e-68
1.017850872980436401875304e-65
1.863400919359773809925427e-63
1.823466041664997826474863e-61
1.20327316375727405282273e-59
6.003901517888375449180538e-58
2.357752161496798041174289e-56
7.412739472890691570924971e-55
1.896953268449372804508444e-53
4.40502831293760984202457e-52
9.643330328896984635097563e-51
2.674951721700634187011199e-49
4.835958917620971848847295e-48
2.464690576528710478650384e-38
3.11286624440716545341988e-38
3.614997679675298882878238e-38
4.128958249398990782849932e-38
4.689708699004254386662683e-38
5.309439283130931709339133e-38
5.995484776337616572582111e-38
6.754399083588890502490174e-38
7.592958068340806138099155e-38
8.518435129418249354767058e-38
9.538704076400374788084257e-38
1.066230302705380545801369e-37
1.189849186451711387247965e-37
1.325731132860485703519448e-37
1.474964585058055020065564e-37
1.638729099628637464591876e-37
1.818302654007529281795801e-37
2.015069551322110214228115e-37
2.230528684065014521490482e-37
2.466302065770190783004443e-37
2.724144935180019676973611e-37
3.005959037445259854260045e-37
3.313804691412530439684196e-37
3.649901194412079542919751e-37
4.016625263244246529002064e-37
4.416559946825990573370048e-37
4.852606761159779395845656e-37
5.327971603309632412401364e-37
5.845776760711458536740537e-37
6.40871543967069799394002e-37
7.020081308244223751817012e-37
7.686300986969076186280262e-37
8.416903053591046864653951e-37
9.216546233211514823800112e-37
1.007459915684406783830661e-36
1.097498660577181363766324e-36
1.193496700916428945815412e-36
1.303390332664837954995639e-36
1.438179656454308967945563e-36
1.600919507082790249222177e-36
1.778200389884292386567548e-36
1.945433841116286519374878e-36
2.076198499502923366119617e-36
2.160364504605755058490432e-36
2.214451670496865312341291e-36
2.265953380024118699019299e-36
2.351951143375865212337038e-36
2.533758222603384182947691e-36
2.783258738474330831936104e-36
2.88786265591785522701853e-36
2.894150149784881356904393e-36
2.893925379327271240946034e-36
2.891973582724993159883361e-36
2.883760928737112585422216e-36
2.858873845537838225419373e-36
2.802614280567410993039943e-36
2.723036353301960785328673e-36
2.668653083615891953638803e-36
2.647700936087766083271366e-36
2.638986724352930915562212e-36
2.609171427225450281975069e-36
5.601549086622229068507721e-36
1.277680885066725966382447e-35
2.876667579188543031440054e-35
1.288308622742516755174549e-34
1.276362603941778985273631e-33
1.340812217418438734525403e-32
1.187698203850380332075286e-31
8.74025305281670898257385e-31
5.4009695381330560156619e-30
2.829951799522206804317341e-29
1.264659918155996285611377e-28
4.817672269560749752190239e-28
1.532937063466052347279373e-27
3.728377353384767402422314e-27
5.802391808890240504058404e-27
6.140414909034635468984442e-27
5.921531225295621822948008e-27
4.831617250870007096327221e-27
2.593316437143304034495377e-27
6.000962494534634448806728e-28
3.389737052498496829658419e-29
2.544232363834503242652819e-31
1.436376836486376289749227e-34
4.926460327787644257042516e-39
1.534696748211158877950766e-43
4.432840635697398924859933e-48
1.219664643239338199265727e-52
3.313787337852064860235351e-57
9.174741921424450276688643e-62
2.597096318339657253837796e-66
7.372454700583687474850153e-71
2.06701433096428433730076e-75
5.72813926039159633838443e-80
1.583319770478244788374248e-84
4.391340297200060473528398e-89
1.221030485252199927216747e-93
3.390299909505192047818353e-98
9.377342428804600355873066e-103
2.584990330249084769198259e-107
7.114602453331925827167952e-112
1.957113951305425319639275e-116
5.379468153561044851975591e-121
1.476203015878281737919083e-125
4.042001425046988954460091e-130
1.104339718609737349758098e-134
3.011589178173126914245602e-139
8.198802330690619121160747e-144
2.449593931104275983548555e-148
1.692706463795968259906829e-149
6.213771345149413974818666e-150
2.638972147410435081080349e-150
1.109283453427819039581335e-150
4.590629833021740313792509e-151
1.861576568019746311339497e-151
7.365488981611379133892171e-152
2.836931071192555734772304e-152
1.062293192744597346302462e-152
3.863381720674912092598893e-153
1.363628574344664364649133e-153
4.668623343378184590365333e-154
1.549801890597667198472317e-154
4.987148601890012304683641e-155
1.555492382896288202578019e-155
4.702427965644017341648633e-156
1.378017310453995998697934e-156
3.915052408098086068458307e-157
1.078620181972214492870939e-157
2.882469598302616522064656e-158
7.474081053332588967632231e-159
1.881004151952037406937535e-159
4.596314036555150075707144e-160
1.090865655351528249967583e-160
2.515536997630844444589341e-161
5.638263344372433002851495e-162
1.228775630673496613276233e-162
2.604768133300902447898563e-163
5.372670903524225063370255e-164
1.078673532019473029184484e-164
2.108728632539043392093524e-165
4.01543761215832549886282e-166
7.450332785607113012596848e-167
1.347400845226315350592739e-167
2.375981320158636629016312e-168
4.086582999999825769450792e-169
6.857953308650712123968522e-170
1.123289550350294377342918e-170
1.796382901798647434106018e-171
2.805851802679946839338079e-172
4.281936687919578604227612e-173
6.386750636216947177746106e-174
9.314145687790675998036635e-175
1.328601485193256920462226e-175
1.854421956909755681553794e-176
2.533781408081242172320849e-177
3.390603443624474630409981e-178
4.445869134252078936584654e-179
5.715732641594604879022486e-180
7.210328943135755691401338e-181
8.934420283365366782540551e-182
1.089216424133307960870084e-182
1.310085575867015404975904e-183
1.562436692387496589921686e-184
1.865030975147650290493083e-185
2.266465340920569947101155e-186
2.884288888469532562348751e-187
3.991861576972095066709126e-188
6.209385051794997563302956e-189
1.091962902080822509658746e-189
2.116253904869575646679519e-190
4.353813028652411390921278e-191
9.220660730315742400100679e-192
1.971978427335535110844362e-192
4.214684581670536864335438e-193
8.955007984476272500812271e-194
1.886653545187588106476345e-194
3.93652411229885341059365e-195
8.12980331191380966654352e-196
1.66142719938874680790222e-196
3.359464211761992140922347e-197
6.720956423707463184118535e-198
1.330346734595016073471793e-198
2.605428987392550851885767e-199
5.048773764494026008156052e-200
9.680512524830890100890843e-201
1.836669209687360790867493e-201
3.448247841727798026935734e-202
6.406426550727288092198448e-203
1.177871713195537627563489e-203
2.143185291998036461901583e-204
3.859363833793988193812782e-205
6.878290583413628177161501e-206
1.213300677331021561120756e-206
2.11832997533055539808937e-207
3.660748954384111861712961e-208
6.261972225292619356044046e-209
1.060304600099449707550931e-209
1.77722210081152840750904e-210
2.948881455319503130666447e-211
4.843844963100663293732007e-212
7.876857500971835265777056e-213
1.268112732052311662655772e-213
2.021235431533528335654439e-214
3.189641805228500364067299e-215
4.983614808635380139391361e-216
7.709671817249839042446858e-217
1.180938495604973233387731e-217
1.791139821810694206457836e-218
2.690005348100390328440161e-219
4.000448010113058547871449e-220
5.891231765361489671540606e-221
8.591233126276566258971942e-222
1.240699236914768223098071e-222
1.774388087980636106834668e-223
2.513107372477313518973537e-224
3.525030103850907681548736e-225
4.896804568998708875414854e-226
6.737045011815499832092413e-227
9.179969199343766908712052e-228
1.238899969799558708167094e-228
1.656008015330272129930457e-229
2.192438995668853557009319e-230
2.875007612969933340499523e-231
3.734256743791515529723627e-232
4.804300138587105371907039e-233
6.122428933398359389678117e-234
7.728437792911929552065998e-235
9.663634456850905467649372e-236
1.196950964556859615574197e-236
1.468606288539862112430937e-237
1.784980352128844269857682e-238
2.14914740715488545918189e-239
2.563357357699164087010052e-240
3.02877895086152324795161e-241
3.545247540735291524499481e-242
4.111033468706884048167523e-243
4.722648582457043883823094e-244
5.374708763823114800368905e-245
6.059869329019160679224028e-246
6.768847677263501121498803e-247
7.490543594586309101369644e-248
8.212262311505672550858846e-249
8.920039057681595787118102e-250
9.599056881388305447811522e-251
1.023414244145164967546394e-251
1.081031793158306057623123e-252
1.131338186512141664057887e-253
1.173048767967712408346608e-254
1.205068744664018539468187e-255
1.226540865196475535229245e-256
1.236883510858614398227547e-257
1.23581684032634806491141e-258
1.223375349473553572644756e-259
1.199906060853049238102005e-260
1.1660524730800131340734e-261
1.122725304221226940959232e-262
1.071061881931151140393541e-263
1.012376701625033307874258e-264
9.481061423728465545056502e-266
8.797505676774728262045578e-267
8.088170357689218954106704e-268
7.367656139997483259140623e-269
6.649618661647984152846413e-270
5.946375069578383087027278e-271
5.268605507395988149888343e-272
4.625155821951428541272515e-273
4.022941016522794043508936e-274
3.466942974419210943842689e-275
2.96029109756094945262686e-276
2.504410991496726417863284e-277
2.099224277907877167487659e-278
1.743381988515939194477229e-279
1.434514637028861678692359e-280
1.169483740853694389837449e-281
9.446219847062587188343332e-283
7.559520810086657037045425e-284
5.993773985385341265272644e-285
4.708403505022265577727952e-286
3.664471591399840425153337e-287
2.825598105512727307177103e-288
2.158577066810111522643206e-289
1.633726931453112654610716e-290
1.225018194173703666104222e-291
9.100243297518840854816613e-293
6.697410317730268164016256e-294
4.883150453098427244956959e-295
3.52718521417241191120833e-296
2.52398553434911231082045e-297
1.789250621020226112672325e-298
1.256539945074890392906285e-299
8.741724651050969723312887e-301
6.024601757915326617963637e-302
4.113054477594467690776863e-303
2.781632644627035033400438e-304
1.863495634269423660691603e-305
1.236642510255166544477658e-306
8.129069555141302742213457e-308
5.293121540696612435008869e-309
3.413897881585749596461307e-310
2.180970956705528701234322e-311
1.380075308054442475542892e-312
8.649716499656998748510107e-314
5.369570729777765362841763e-315
3.301475053172563548164664e-316
2.010459831107533897508001e-317
1.21252108605421203132181e-318
7.238061711574261872186733e-320
4.367540309236619450520868e-321
2.470328229206232720882844e-322
0
0
0
0
0
0
0
0
0
0
0
0
0
0
0
0
0
0
0
0
0
0
0
0
0
0
0
0
0
0
0
0
0
0
0
0
0
0
0
0
0
0
0
0
0
0
0
0
0
0
0
0
0
0
0
0
0
0
0
0
0
0
0
0
0
0
0
0
0
0
0
0
0
0
0
0
0
2.06797577418345166449992e-69
1.737638417214592493967925e-66
7.684973414916036791950771e-64
1.265187041979510575184638e-61
1.189235953659445774543528e-59
7.695528289819284478455412e-58
3.798771086174966479638265e-56
1.48941082676755210553551e-54
4.764376098671170837994586e-53
1.257642454437641080178439e-51
2.920741978853282752602346e-50
5.879846935866971067436033e-49
1.374956743223461268345127e-47
2.243224846774254557900902e-46
4.44371357748771951631107e-37
5.891456201099558773242302e-37
7.130210124037163655198848e-37
8.477710721038712336002929e-37
1.002090698407989528755162e-36
1.180360829302136705118673e-36
1.386218591012232984895539e-36
1.62341086438562523711527e-36
1.896029900209944009555761e-36
2.208602459753330237787675e-36
2.566146238637931625592356e-36
2.974221629379438750491851e-36
3.438985989500409495247954e-36
3.96725248391739023258851e-36
4.566554341266493757501834e-36
5.245215151997628265980383e-36
6.012425883399274607911241e-36
6.878329042878115645053823e-36
7.854109896755046689452537e-36
8.952095712647646929831115e-36
1.018586745465719489291136e-35
1.157038611961437815611642e-35
1.312211882300629134170564e-35
1.485914594811941373402158e-35
1.680129996018501083438015e-35
1.897046536264101165907224e-35
2.139097182734680125805985e-35
2.408951744751146505455462e-35
2.709427050287021330856041e-35
3.043476487178424833442975e-35
3.414564088005799025584928e-35
3.827258180940753737046808e-35
4.286913281090967983603336e-35
4.797530967511251902503329e-35
5.359822677717593430508734e-35
5.97431499014768050033468e-35
6.650233682894863791448255e-35
7.411682630224571954317371e-35
8.291468339978555942669555e-35
9.312038134474629761826499e-35
1.046142386138105207657961e-34
1.167513795971375357665789e-34
1.284662078090807422033795e-34
1.388764601458018023540239e-34
1.479215038225786162564738e-34
1.564138954883617575005802e-34
1.660131121060238046069607e-34
1.800760904369805428248675e-34
2.047592128044738919125208e-34
2.386738220090744146038684e-34
2.557295166796707933895246e-34
2.56932993314838866806765e-34
2.567407972598508255826023e-34
2.559514986210381266153122e-34
2.540844351866181190097518e-34
2.508931588783408828092994e-34
2.472777256140518722440132e-34
2.448202496736976901159767e-34
2.434332859063616569220942e-34
2.425534922693039235286142e-34
2.394679177340004954819351e-34
5.045533976611332275396875e-34
1.098812636070620899458594e-33
2.444564063069329369348152e-33
1.18836668842435336588291e-32
1.210214473045950463904106e-31
1.234836307894372728789416e-30
1.050138418666760336133216e-29
7.397624509572248431499663e-29
4.367371964879710624983955e-28
2.181090522954970847370867e-27
9.256744231147021479711367e-27
3.322645894804408374061731e-26
9.70112432535217398855162e-26
2.016324684736695110569775e-25
2.592538130918262466594952e-25
2.600647357589162730053873e-25
2.395255564912800577497772e-25
1.712910036630795780243994e-25
6.956932251087556592308488e-26
9.846560551281691349467578e-27
2.688399457358894982081186e-28
7.849544139221671099478158e-31
1.376688742372028080520675e-34
3.857752685354434330979914e-39
1.039671232017601732221302e-43
2.830754627039997015296395e-48
8.027705661920016700582041e-53
2.329046046195819501196645e-57
6.69807464934247543936248e-62
1.891592041713665300131509e-66
5.287802193389079642337934e-71
1.478003120213907317279064e-75
4.149940272664898718154321e-80
1.168350704586685722116424e-84
3.283728431413717521774388e-89
9.19019635457917606962847e-94
2.562304584034298173431798e-98
7.12978937233441600383596e-103
1.98252017319279358013524e-107
5.508576164449741911527888e-112
1.528206286366383138894652e-116
4.229984506725991814237617e-121
1.168052025394673256603497e-125
3.218796539448505645701767e-130
8.854700816967955529871482e-135
2.431777694567640341552788e-139
6.665883757417494053618067e-144
2.084154809233289280694159e-148
1.876082079476485930669335e-149
8.00637754663479576917516e-150
3.779554745173295165744169e-150
1.743545243376148568421048e-150
7.819522184326634739913208e-151
3.395872815175472508991893e-151
1.42443509002796638071617e-151
5.765857934008866346906071e-152
2.251797069687914516023019e-152
8.48542245982431714800112e-153
3.085959583976147874443556e-153
1.083441747800707249817825e-153
3.673383280386443437606893e-154
1.203192423018667367310929e-154
3.808802237161558536668047e-155
1.165772457827112239708604e-155
3.451496768888250455486038e-156
9.889445795679364279680761e-157
2.743554110230943550725949e-157
7.372930691295625484528303e-158
1.92025826301925701886702e-158
4.849291245160657888290056e-159
1.187954061394839598786373e-159