# geometry NO_DATA 660
#  x  y  z
2.848754107323088646808174 0.04199993716206339156027383 1.593245829838974447767441
2.847508214646176760709295 -0.0166666666666666525575824 1.594754075904120327322744
2.848754107323088646808174 0.008666603828730060424256898 1.593245829838974447767441
2.84195051744262983106637 0.005551272259573130675447405 1.5975082146461769827539
2.837638712915994787522322 -0.02529027571993742312672637 1.598754107323088646808174
2.837638712915995231611532 0.0363928202390836688651099 1.598754107323088646808174
2.846403755965800641547503 -0.04750821464617721590073529 1.593649617223743764071742
2.840846058762253711904577 -0.04750821464617720202294748 1.596403755965800641547503
2.840846058762253711904577 0.0475082146461772228396292 1.596403755965800863592108
2.846403755965800641547503 0.0475082146461772228396292 1.593649617223743764071742
2.895320703457445521422642 0.0264700136234352657871316 1.581149310165989918530727
2.890641406914890687573916 -0.0166666666666666525575824 1.583555710269163530057313
2.895320703457445521422642 -0.006863319709898072287779236 1.581149310165989918530727
2.876692063207464400420577 -0.01123202074818579337955882 1.587924083955650766952772
2.867422016042592503026754 0.007308073581557807119057912 1.589886057538964836410855
2.889590665231553501257622 -0.0406414069148910983564349 1.582504968585825899651809
2.864704693083352182725321 -0.03520676099641024264785827 1.589849241756148057191922
2.87292399856488644971364 -0.0406414069148910983564349 1.58683652648949657937294
2.875641321524126770015073 0.03520676099641027734232779 1.586873342272312914502663
2.863653951400014552319817 0.04456535408151916094476874 1.588798500072810426786418
2.889590665231553501257622 0.04064140691489112611201051 1.582504968585825899651809
2.852717322959239965030065 0.03905707659740532966541338 1.591774399556645791520282
2.855434645918480729420708 0.01115838918255286117686698 1.591811215339462126650005
2.852717322959239965030065 -0.01674029823229963853670199 1.591774399556645791520282
2.934442727358496316725223 -0.001447702455004970913468587 1.573166754747334472597231
2.942221363679247581046639 0.01632835823682487336183655 1.572997600532413331464454
2.942221363679247581046639 -0.01922376314683483730649804 1.572997600532413331464454
2.925342213141308267410068 -0.0186694094444221150852492 1.574232819116144987958705
2.934122220850936990643731 -0.03444272735849651656536707 1.57395564226493833714926
2.916454182795393368365922 -0.03422668208592560129543969 1.576035152816332107761355
2.916454182795392924276712 0.03422668208592562905101531 1.576035152816332107761355
2.925342213141308267410068 0.01866940944442216365750653 1.574232819116144543869495
2.934122220850936990643731 0.03444272735849653044315488 1.57395564226493833714926
2.925662719648867593491559 -0.00089334875259224771643779 1.573443931598540901362071
2.924661348259990134579311 0.001109394025163227062713567 1.573551954234826411038739
2.915773317914074347356745 0.002495273375210838636556465 1.575354287935013530841388
2.907886658957036907224847 0.02005528879446977913447725 1.57704859899891514096737
2.907886658957037795403267 -0.01506474204404812701485472 1.57704859899891514096737
2.987333200129415278212264 -0.001765134925170005726971501 1.570117565741332654738471
2.993666600064707417061527 0.01890139853757910951004284 1.571234931676788848520232
2.993666600064707417061527 -0.02243166838791913614281626 1.571234931676788848520232
2.974236229906138007095251 -0.02460267533293845204633854 1.570236363110056210246057
2.984537634174565745581731 -0.03733320012941578058818237 1.571321866582565895953394
2.963902963174763094400532 -0.03726947520352267423371373 1.571512445280594860719248
2.963902963174763094400532 0.03726947520352268117260763 1.571512445280594860719248
2.974236229906138007095251 0.02460267533293847980191416 1.570236363110055766156847
2.984537634174565745581731 0.03733320012941580140486408 1.571321866582565451864184
2.977031795860987095636574 -0.003936141870189322281015087 1.569032062268822969031135
2.973063791527851495999357 0.003999866796082472870932367 1.569063924731769477105559
2.962730524796477027393848 -0.001447702455004983707054222 1.570340006902308349623354
2.956365262398238158425556 0.01915510608185102062184235 1.57158422660990049202212
2.956365262398238158425556 -0.02205051099186099844429165 1.57158422660990049202212
3.035350656912232825135334 0.0004347983869469916129793519 1.573200075614573423266052
3.04267532845611565761601 0.01911878863251373697473845 1.574426136597497194458128
3.04267532845611654579443 -0.01824919185861973575102368 1.574426136597496750368919
3.024515326624069189165311 -0.02095849050746476441298149 1.572498003045169401303838
3.033985910088351278801611 -0.0353506569122334149413156 1.573852652369591931247328
3.015173331501285858280426 -0.0356078335952313487777765 1.572624097372034457364975
3.015173331501285858280426 0.03560783359523132796109479 1.572624097372034457364975
3.024515326624069189165311 0.02095849050746472277961807 1.572498003045169401303838
3.033985910088351278801611 0.03535065691223339412463389 1.573852652369592153291933
3.025880073447950735499035 -0.002274500261898034121632595 1.571845426290151337411771
3.023734161527551478343412 0.002017323578900042171935247 1.571716837948652134571148
3.014392166404768147458526 -0.001765134925170045625611448 1.571842932275516968587681
3.007196083202384073729263 0.0171760320033946395357205 1.572097614943881227489442
3.007196083202384073729263 -0.02070630185373470433241039 1.572097614943881005444837
3.093755164524486733768072 0.02526824849069791989464306 1.581513083966211041797578
3.087510329048974710985931 -0.01666666666666671153818058 1.581389288769836198866869
3.093755164524487177857281 -0.008065084842635419914991246 1.581513083966211041797578
3.077498447585409913074272 -0.003357096260461885084414035 1.580855543845871569175188
3.073731401597358914301594 0.004176995715640727420414624 1.580445594118282226503425
3.086801857699541073998262 -0.03751032904897414615996709 1.58068081742040300596841
3.067076616394255772490851 -0.0242007586427693162367536 1.578984445181524920442939
3.07013519103287402245428 -0.03751032904897414615996709 1.578685923559681292260848
3.076789976235977164265023 0.0242007586427692364394737 1.580147072496438820365938
3.066368145044823023681602 0.03669042959379512774953369 1.578275973832091949589085
3.086801857699541073998262 0.03751032904897411146549757 1.58068081742040345005762
3.05665478520310163190743 0.0204585613140754740690852 1.577113346517178271710691
3.063309570406204773718173 0.0004347983869469699289359021 1.578574495453935355726571
3.05665478520310163190743 -0.0195889645401814971314991 1.577113346517177605576876
3.147241900753981802552062 0.03775357582056971389450339 1.590511675066587971016929
3.144483801507963249832756 -0.01666666666666665602702935 1.591118688664266311860729
3.147241900753981802552062 0.004420242487236385360571678 1.590511675066587971016929
3.131764222228387239965741 -0.008772491892485866776807413 1.590536714120872829880682
3.121802742194828894639613 0.01115046817463005192350156 1.589347725979801007056835
3.143210188303186214398011 -0.04448380150796338305951849 1.589845075459489276425984
3.117855654807738297051856 -0.03658962673378259033984961 1.587173773087753092525531
3.126543521636519162854029 -0.04448380150796338305951849 1.587089148024048101959238
3.130490609023610204530996 0.03658962673378259033984961 1.589263100916095794445937
3.116582041602961261617111 0.04210582522581919617810087 1.585900159882976057090787
3.14321018830318665848722 0.04448380150796338305951849 1.589845075459489276425984
3.10394708738708979822718 0.02986374466754301848503417 1.583810832054633355170381
3.107894174774179951725728 0.004424586108390476599239172 1.58598478494668104765708
3.10394708738708979822718 -0.02101457245076206528655582 1.583810832054633355170381
3.18287551288129622051315 -0.01541819976215842886990703 1.598293712643454655975006
3.16899718747546632613421 0.01450255885808365147182641 1.59658742528690877904296
3.18287551288129622051315 0.04442331747832571620104858 1.598293712643454655975006
3.167290900118921115335979 -0.04658742528690873463403932 1.5949285997997577624119
3.167290900118921115335979 0.04658742528690874157293322 1.5949285997997577624119
3.151706287356545566069599 0.03985719959951507240791813 1.59156348695606064680419
3.15341257471309122095704 0.009936440979273002474525534 1.593222312443211885479855
3.151706287356545566069599 -0.01998431764096907786720791 1.59156348695606064680419
2.794021107909945289549114 0.01564741777035716721599989 1.621626309860412451513412
2.788042215819889868555492 -0.0166666666666666664353702 1.626844816795123493946562
2.794021107909945289549114 -0.01768591556297616565474051 1.621626309860412451513412
2.774498771185010870254928 -0.01042022260309030147473752 1.638042215819889513284124
2.766934218640187737037195 -0.03179577175631306124037323 1.644021107909944490188536
2.766934218640187737037195 0.01095532655013245829089819 1.644021107909944712233141
2.78657852934125482846639 -0.03804221581988942446628243 1.625381130316488675902065
2.773035084706376274255035 -0.03804221581988942446628243 1.636578529341254473195022
2.773035084706376274255035 0.03804221581988942446628243 1.636578529341254917284232
2.78657852934125482846639 0.03804221581988943140517634 1.625381130316488675902065
2.817459590585733142376057 -0.04557519215768710690861454 1.606350621122613286928527
2.806350621122613464564211 -0.04557519215768710690861454 1.611819888764514097090341
2.806350621122613464564211 0.04557519215768710690861454 1.611819888764514097090341
2.817459590585733142376057 0.04557519215768710690861454 1.606350621122613731017736
2.824430342847396246952485 -0.02335725323144732801239343 1.602212403921156269603898
2.815533777305432749926695 0.005551272259573117665021336 1.604424807842312894479164
2.824430342847396246952485 0.03445979775059355987298915 1.602212403921156269603898
2.804424807842313072114848 -0.005728131382865592549635814 1.609894075484213482596374
2.802212403921156891328792 0.02318039410815485312777895 1.613150939204957667882923
2.802212403921156891328792 -0.03463665687388603475760362 1.613150939204957667882923
3.199769569344391051401999 -0.01617274157468504697243716 1.600477393201600762040471
3.199884784672195614518841 0.0169301611030388127199231 1.600609140419786635689547
3.199884784672195614518841 -0.04927564425240890666479743 1.600609140419786635689547
3.19880273076790411224124 -0.04976956934439052959717742 1.600362177873795754834418
3.19880273076790411224124 0.04976956934439051571938961 1.600362177873795754834418
3.198687515440099993213607 -0.01666666666666667337426411 1.600230430655609881185342
3.197720676863613054052848 0.01427212820247416788510542 1.600115215327805096023894
3.197720676863613054052848 0.04760546153580749728639887 1.600115215327805096023894
3.245236188649720965315737 -0.006951934114809816059321612 1.609621177626206822708355
3.247618094324860482657868 0.02161758786824487937883177 1.612096638226996114795497
3.247618094324860482657868 -0.03552145609786450802802804 1.612096638226996114795497
3.214765491101735594980937 -0.04492140550413327437784261 1.602862635785347933392586
3.231274766195608272312256 -0.04523618864972135666935316 1.607562610488481924519988
3.200480730110208504868297 -0.04968521685441190660625921 1.600727692656199296905584
3.200480730110209393046716 0.04968521685441190660625921 1.600727692656199296905584
3.214765491101736039070147 0.0449214055041332605000548 1.602862635785347933392586
3.231274766195608272312256 0.04523618864972134973045925 1.607562610488481924519988
3.228726913555848732073628 -0.01635188352107858761330661 1.604921202923072609536348
3.21459954413711601617365 0.01190285531638801685971885 1.602696688820727466406879
3.200314783145588481971799 -0.01617274157468505044188412 1.600561745691579051964482
3.200157391572794551848347 0.01684580861306018972900489 1.600651316664775780651553
3.200157391572794551848347 -0.04919129176243029061277312 1.600651316664775780651553
3.285740059286943903771316 0.004276904481355913237305977 1.624731726287067745673198
3.292870029643472307157026 0.0233502971016328955689012 1.628073541504551080549845
3.292870029643472307157026 -0.0147964881389210725637362 1.628073541504551080549845
3.272972077306269156338203 -0.02351957436052742878018762 1.620565351352658556294273
3.283528501509727526297411 -0.03574005928694364703224196 1.62492689446346183501646
3.263435380996130508179931 -0.03777951507358377758460932 1.618292747272058740293232
3.263435380996130508179931 0.03777951507358377758460932 1.618292747272058962337837
3.272972077306269156338203 0.02351957436052742878018762 1.620565351352658556294273
3.283528501509727526297411 0.03574005928694364703224196 1.62492689446346183501646
3.275183635083485089722899 -0.004446181740250448183315868 1.620370183176264688995616
3.271757181236554679060191 0.002406725953610311993097204 1.619350455282944523105471
3.262220484926416474991129 -0.006951934114809811722512922 1.617077851202344485059825
3.256110242463208237495564 0.01416091429210730029408793 1.615824975015065056993535
3.256110242463208237495564 -0.0280647825217269220043903 1.615824975015064612904325
3.335268000029253165905629 -0.01160587977906557544116595 1.646873879808319340867229
3.322323180302147793696577 0.01547521317090624556889189 1.643747759616638548507694
3.335268000029254054084049 0.04255630612087807351784363 1.646873879808319340867229
3.319197060110467223381647 -0.04374775961663849438432194 1.640678998715663805540999
3.319197060110467223381647 0.04374775961663848744542804 1.640678998715664249630208
3.303126120191681280857665 0.03135799743132773598208729 1.634484117623008714303978
3.306252240383361851172594 0.004276904481355909767859025 1.637552878523983235226069
3.303126120191681280857665 -0.02280418846861591644636924 1.634484117623008714303978
2.744878220352617859134625 0.01358252909828433670214043 1.668704308745665887414589
2.73975644070523616235846 -0.01666666666666667684371106 1.676669484901760043271679
2.744878220352617859134625 -0.0197508042350489944338765 1.668704308745665887414589
2.730519683291707355721201 -0.001806848160391148067072109 1.689756440705236117949539
2.726404705525560245860106 -0.02489662219896048717115988 1.694878220352618036770309
2.726404705525560245860106 0.02128292587817820491480347 1.694878220352618036770309
2.738238242197939875666179 -0.03975644070523601941724579 1.675151286394463756579398
2.72900148478441106902892 -0.03975644070523601941724579 1.688238242197940053301863
2.72900148478441106902892 0.03975644070523601247835188 1.688238242197940053301863
2.738238242197939875666179 0.03975644070523600553945798 1.675151286394464200668608
2.756414169643223832650847 -0.04780603492570922874449479 1.653290947611435912634192
2.753290947611436223496639 -0.04780603492570922874449479 1.656870658474626667455709
2.753290947611436223496639 0.0478060349257092356833887 1.656870658474626889500314
2.756414169643223832650847 0.04780603492570922874449479 1.653290947611436134678797
2.757343426600721958408258 -0.04155959086213285857969169 1.651096982537145096969766
2.755317187106078868907844 -0.01042022260309029453584362 1.652193965074290504801979
2.757343426600721514319048 0.0207191456559522660385575 1.651096982537145319014371
2.752193965074290815664426 -0.009507244940284995463053441 1.655773675937481259623496
2.751096982537145407832213 0.02163212331875756858079463 1.658256404263526828657405
2.751096982537145407832213 -0.04064661319932755950690151 1.6582564042635266066128
3.349773439192651469653583 -0.01615886419222562972453083 1.650480462044568996660132
3.349886719596325779235713 0.0169479083337593199043436 1.650621082878115375436323
3.349886719596325779235713 -0.04926563671821060363953393 1.650621082878115153391718
3.349290992848445558394133 -0.04977343919265160565590378 1.650367181640894687078003
3.349290992848445558394133 0.04977343919265163341147939 1.650367181640894909122608
3.349177712444771692901213 -0.01666666666666664214924154 1.650226560807348308301812
3.348695266100565337552553 0.01524865236355789355204848 1.650113280403674220764287
3.348695266100565337552553 0.04858198569689121948389499 1.650113280403674664853497
3.392577635389692591871835 -0.001602457806721448163589372 1.664954469040280660152575
3.396288817694846251526997 0.02430851091630371885177198 1.668775391165099541979089
3.396288817694846251526997 -0.02751342652974660477060986 1.668775391165099097889879
3.363563512583675141343065 -0.04217927175753630880672418 1.654319210527316785785956
3.380030997434264605772114 -0.0425776353896918369201785 1.661652133141211296063489
3.350608028222162637632664 -0.04960163636784448160099714 1.6508619294593831483553
3.350608028222162193543454 0.04960163636784451629546666 1.650861929459383370399905
3.363563512583675141343065 0.04217927175753633656229979 1.654319210527316785785956
3.380030997434264605772114 0.04257763538969181610349679 1.661652133141211518108094
3.376110150539103571531996 -0.01626830303451115913859759 1.657621546426385927830438
3.363353847993668654936528 0.00924430205635851966194938 1.654109545937309855290209
3.350398363632155707136917 -0.01615886419222561931618998 1.650652264869376217859553
3.350199181816077675932775 0.01677610550895219237999001 1.650706984290518875013731
3.350199181816077675932775 -0.04909383389340346570683948 1.650706984290518875013731
3.448976518396913881758792 0.04601265687845738222572223 1.697036138481542888456488
3.447953036793828918149529 -0.01666666666666666296592325 1.696982846836142977409168
3.448976518396913881758792 0.0126793235451240580285992 1.697036138481542888456488
3.436253764285999157124252 -0.006731878348991864220718373 1.692985642634991183541615
3.425577973381255691975866 0.01461970346049556480905185 1.689041730079239522765988
3.447256744193037292234294 -0.04795303679382889594506878 1.696286554235352017627747
3.420610579222418401457162 -0.03801824847615409286305521 1.6848745620013829693562
3.430590077526371572957942 -0.04795303679382889594506878 1.688122181956343670350407
3.435557471685208419387436 0.03801824847615409286305521 1.6922893500342004458048
3.419914286621627219631137 0.04006521168232519275465009 1.68417826940059200957478
3.447256744193037292234294 0.04795303679382889594506878 1.696286554235352017627747
3.404967394158837201700862 0.02179608720893708856403137 1.67676348136777453312618
3.409934788317674492219567 -0.001602457806721438839450689 1.680930649445631086535968
3.404967394158837201700862 -0.02500100282237997101342231 1.67676348136777453312618
3.453487386304027850769671 -0.0460979038241825025967735 1.699585290128210468552084
3.452365757959698022716566 -0.01359399023442828431662566 1.699170580256420759468483
3.453487386304027850769671 0.01890992335532593049407524 1.699585290128210468552084
3.45195104808790853567757 -0.04917058025642088298079457 1.698615100170524527811722
3.45195104808790853567757 0.04917058025642088298079457 1.698615100170524749856327
3.45041470987178877649626 0.04723020034104936926144802 1.69764491021283903116057
3.450829419743578263535255 0.01472628675129515792019408 1.698200390298735040772726
3.45041470987178877649626 -0.01777762683845905689050682 1.697644910212838809115965
2.709363616982193079252283 -0.03835668304364668601547095 1.74772030002584011221245
2.708101358452336349103007 -0.00958274965863303504476356 1.745440600051680224424899
2.709363616982193079252283 0.01919118372638061592594383 1.74772030002584011221245
2.717132154302885016505797 -0.04264456130153265744908708 1.709702245049746771599075
2.71198194502390688143123 -0.03808516135321297901850102 1.724089211742253491266297
2.711846184178689611599111 -0.0454406000516803243449715 1.737078159059686655041332
2.71198194502390688143123 0.03808516135321298595739492 1.724089211742253491266297
2.711846184178689611599111 0.0454406000516803243449715 1.737078159059686655041332
2.717132154302885016505797 0.04264456130153266438798099 1.709702245049746771599075
2.71853753785550944499505 -0.02778474279525712867244813 1.70367771934923362131542
2.714785347951605309901879 -0.001806848160391135273486474 1.707355438698467064995157
2.71853753785550944499505 0.02417104647447485682443258 1.70367771934923362131542
2.709635138672627618916522 0.01210726671834698627006066 1.721742405390974228751588
2.708237119297553618935126 -0.009311227968199324578346676 1.732451652734247282694469
3.492125969368196969355722 0.0006438465119778709073311562 1.716529287221125077422812
3.496062984684098484677861 0.02610314921350830041912872 1.721247528494545875332733
3.496062984684098484677861 -0.02481545618955255383397684 1.721247528494546097377338
3.48093265623355074822598 -0.04212596936819709703136994 1.712592271905223784145278
3.48093265623355074822598 0.04212596936819708315358213 1.712592271905223784145278
3.476995640917649232903841 -0.01666666666666667684371106 1.707874030631802764190752
3.465802327783003455863309 -0.02146802086623119526498371 1.703937015315901470913218
3.465802327783003455863309 0.01186531246710213240158627 1.703937015315901470913218
3.52636257811936371098227 -0.02004955203158954174513795 1.746412130150953645468803
3.518563093833251276265628 0.006108041603651269413344238 1.742824260301907290937606
3.52636257811936371098227 0.03226563523889207363293252 1.746412130150953645468803
3.514975223984205143779036 -0.04282426030190747412440544 1.738400720073609351246091
3.514975223984205143779036 0.04282426030190747412440544 1.738400720073609129201486
3.503587869849046132486592 0.02680144014721869138995203 1.730389309996264834978774
3.507175739698092264973184 0.000643846511977884785118964 1.734812850224562996714894
3.503587869849046132486592 -0.02551374712326293092701235 1.730389309996265057023379
2.717202667996826193075321 -0.02935218339094430861635487 1.796554851387770046500236
2.713769056916757627107017 -0.002909147282070142365162368 1.793109702775540714725366
2.717202667996826637164531 0.02353388882680403082492404 1.796554851387770046500236
2.710189504074957511647881 -0.04556210877950328530516799 1.75664754557094071607537
2.710092694183170003441319 -0.03867181155504411521617314 1.769869063625377991755272
2.714752508265220853900246 -0.04310970277554083268656271 1.784316784681796441702772
2.710092694183170891619739 0.03867181155504410827727924 1.769869063625377991755272
2.714752508265220853900246 0.04310970277554083962545661 1.784316784681795997613563
2.710189504074957511647881 0.04556210877950328530516799 1.756647545570940938119975
2.709302862618281793061215 -0.03847819177146964697566744 1.752218945610248157507272
2.707979849724512888542449 -0.009582749658633040248933987 1.754437891220496759103753
2.709302862618280904882795 0.01931269245420357688614033 1.752218945610248157507272
2.707883039832726268514307 0.009776369442207492876928399 1.767659409274933590694445
2.70910924283470766482651 -0.01222877544616995416915106 1.778661981719122486822471
3.546870809927846757148018 -0.008588068034696735852939753 1.757168489388137411211233
3.548435404963923289756167 0.02161607522648426732425619 1.759643193668046112776437
3.548435404963923289756167 -0.0387922112958777390301357 1.759643193668046112776437
3.543156092432415249504629 -0.0468708099278476730820131 1.755603894352061100647688
3.543156092432415249504629 0.0468708099278476730820131 1.755603894352061100647688
3.54159149739633871689648 -0.01666666666666666296592325 1.753129190072152399082483
3.537876779900907653342301 0.002978851531498939719799779 1.751564595036076088518939
3.537876779900907653342301 0.03631218486483226565164628 1.751564595036076088518939
3.586204106312997019756494 -0.007358731705095973227304107 1.79356283801809301969854
3.577757796129358514036767 0.01310027766442403360236391 1.787125676036186661121974
3.586204106312997019756494 0.03355928703394403522786149 1.79356283801809301969854
3.571320634147451489326386 -0.03712567603618666112197388 1.780935470667411424372517
3.571320634147451933415596 0.03712567603618666806086779 1.780935470667411424372517
3.556437161981906402985487 0.01187094133482326577255783 1.768308103316729829046494
3.562874323963812983606658 -0.008588068034696727179322373 1.774498308685505065795951
3.556437161981906402985487 -0.02904707740421673400899039 1.768308103316729829046494
2.738118252256264817390274 0.01528925135559661141471111 1.827859706754865865008242
2.744059126128132408695137 0.0367408369451956290374639 1.837896791894130466005208
2.744059126128132408695137 -0.006162334234002435698340783 1.837896791894130688049813
2.734271219153764143072749 -0.03811825225626568058867605 1.821918832882998717792589
2.734271219153764143072749 0.03811825225626572916093338 1.821918832882998717792589
2.728330345281896995857096 -0.01666666666666663521034764 1.811881747743734116795622
2.724483312179396321539571 -0.01479089502580442291868046 1.805940873871866969579969
2.724483312179396321539571 0.0185424383075289134215069 1.805940873871866969579969
2.75125094191019714529034 -0.04854331905026565419092321 1.849794260960462732867882
2.750934079514404828614715 -0.01562146379600730730641267 1.849588521920925154873316
2.75125094191019670120113 0.01730039145825102223086311 1.849794260960462732867882
2.750728340474867028575545 -0.04958852192092499944209294 1.849105553304927873625729
2.750728340474867028575545 0.04958852192092501331988075 1.849105553304927429536519
2.75020573903953735594996 0.04821110660985492707419908 1.848416845649392570294367
2.750411478079075155989131 0.01528925135559659406747635 1.848899814265390073586559
2.75020573903953735594996 -0.01763260389866174587814029 1.848416845649392570294367
3.598731554621336314880864 -0.01321506395135709117927281 1.802994246736318473267602
3.599365777310668423893958 0.0188498240033125666337277 1.804085825404641241220816
3.599365777310668423893958 -0.04527995190602675246172026 1.804085825404641241220816
3.597582582809546458690875 -0.04873155462133632598309418 1.802360024046986142209903
3.597582582809546458690875 0.04873155462133632598309418 1.802360024046986364254508
3.596948360120214793766991 -0.01666666666666666990481716 1.801268445378663374256689
3.595799388308425381666211 0.01183183228576034640155967 1.800634222689331709332805
3.595799388308425381666211 0.04516516561909368621119398 1.800634222689331709332805
3.633461577929931962671617 -0.009453991509115255292838853 1.842915569439047107636043
3.627357434806395275472823 0.009710480702312701550837915 1.835831138878094570543453
3.633461577929931962671617 0.02887495291374063757783297 1.842915569439047551725253
3.620273004245442294291024 -0.03583113887809460246236526 1.827974704130035377147578
3.620273004245442294291024 0.03583113887809462327904697 1.827974704130035377147578
3.607084430560952625910431 0.005949408260070868266489175 1.813033838821023202569904
3.614168861121904718913811 -0.01321506395135706862786762 1.820890273569082395965779
3.607084430560952625910431 -0.03237953616278502894099134 1.813033838821023424614509
2.799143503667510302079791 0.04767381425730926602923887 1.898530310589798819620455
2.798287007335019893616845 -0.01666666666666666990481716 1.897980410796164196796099
2.799143503667510302079791 0.01434048092397592621960456 1.898530310589798819620455
2.788689893559086474539299 -0.002527560885200658309657218 1.891217454444286349968252
2.779949276115642575746278 0.01495367400168652084746501 1.885004397886043792098576
2.767709320947209228336305 -0.04553390897961308303454331 1.867186719511880088617772
2.782999438436173367250603 -0.04828700733501985198348194 1.882170240461987775759667
2.774256272402612744087946 -0.03139480319814708098036249 1.876783833287813507695319
2.774256272402612744087946 0.03139480319814712261372591 1.876783833287813507695319
2.767709320947209228336305 0.04553390897961313854569454 1.867186719511879866573167
2.782999438436172923161394 0.04828700733501985198348194 1.882170240461987775759667
2.752421752048363146059273 -0.0462016987739338885754492 1.851376549177703667581341
2.753275699790736386063372 -0.01562146379600727781611358 1.852753098355406802255629
2.752421752048362257880854 0.01495877118191929130985862 1.851376549177703667581341
2.759822651246139901815013 0.002527560885200702545105855 1.862350212131340443377781
2.765515654959169289384135 -0.01391356831125990095587852 1.870570776729570727781038
2.800819412688788645482418 -0.04906022804393651848275937 1.899879640732724528362496
2.80059024524530641997444 -0.01596761324515286878389375 1.899759281465449811676649
2.800819412688788645482418 0.01712500155363078091497187 1.899879640732724528362496
2.800469885978031925333198 -0.04975928146545031960368277 1.899573044193869408857722
2.800469885978031925333198 0.04975928146545031960368277 1.899573044193869408857722
2.800120359267275205183978 0.04914608838773971977165189 1.899266447655014289352948
2.80024071853454969982522 0.01605347358895607354223323 1.899452684926594692171875
2.800120359267275205183978 -0.01703914120982757615663239 1.899266447655014289352948
3.647309791148027446894275 -0.006304052578076695979858446 1.857871515896267533562991
3.648654895574013679038217 0.02433907190328398265077858 1.861707718514576281876316
3.648654895574014123127427 -0.03694717705943737634521895 1.861707718514576059831711
3.645176802591836739964037 -0.04730979114802733725975159 1.856526411470281079374445
3.645176802591836295874828 0.04730979114802734419864549 1.856526411470281523463655
3.643831698165850063730886 -0.01666666666666665602702935 1.852690208851972997194935
3.641698709609659800889858 0.007020271850340032565584991 1.851345104425986543006388
3.641698709609659800889858 0.04035360518367335502798454 1.851345104425986543006388
3.66737187876417225496084 -0.02921981267673440241239291 1.896591691440906446430859
3.663798402220726391220751 -0.002703096461588526400188215 1.893183382881812537590349
3.66737187876417181087163 0.02381361975355735655091038 1.896591691440906224386254
3.660390093661633148514056 -0.04318338288181255979480966 1.885106331818534375344143
3.660390093661632704424846 0.04318338288181253897812795 1.885106331818534375344143