# geometry NO_DATA 884
#  x  y  z
2.799400082279635881832291 0.04640049367781153011325301 1.5470004113981759008567
2.798800164559271497211057 -0.01666666666666668378260496 1.547600329118541395700959
2.799400082279635881832291 0.0130671603444781903036187 1.547000411398175678812095
2.797600329118544948414637 0.01426699578521221575821976 1.548800164559271497211057
2.797000411398181896061033 -0.0178665021073925942007854 1.549400082279635881832291
2.797000411398181007882613 0.04640049367781704653390662 1.549400082279635881832291
2.798200246838904448054564 -0.04880016455927149721105707 1.54700041139817412449986
2.797000411398177011079724 -0.04880016455927149721105707 1.548200246838904003965354
2.797000411398177011079724 0.04880016455927147639437536 1.548200246838904003965354
2.798200246838904448054564 0.04880016455927148333326926 1.54700041139817412449986
2.842550587800916961356279 0.005303526805495801382805965 1.512752939004578411896773
2.835101175601834277983926 -0.01666666666666669072149887 1.520202351203665092072015
2.842550587800916961356279 -0.02802980652783753148793444 1.512752939004578411896773
2.819034426655531166971969 -0.01546683122594028937657473 1.534501257881471403266005
2.810417089908310295243155 0.00176784226850132853044173 1.541350752360190812240148
2.827651763402746709630264 -0.03510117560183469848089644 1.512752939004577523718353
2.80981717218794679880034 -0.03390134016110830234014273 1.540750834639824207172865
2.810985096736080102175492 -0.03510117560183469848089644 1.52645192796201678575585
2.811585014456443154529097 0.03390134016110826764567321 1.527051845682383390823134
2.802367759988859674535888 0.04880016455927358581812214 1.533301422440736416774598
2.827651763402746709630264 0.03510117560183467766421472 1.512752939004577301673748
2.800599917720363762896341 0.0464004936778136395369998 1.547000411398176789035119
2.801199835440726815249946 0.0142669957852067028070131 1.547600329118543616147008
2.800599917720363762896341 -0.01786650210740022351463274 1.547000411398176789035119
2.892058692732224933763518 0.002352156393344983099230605 1.51029346366112005028981
2.884117385464449956344879 -0.01666666666666669072149887 1.518234770928897692243709
2.892058692732224933763518 -0.03098117693998835367463762 1.51029346366112005028981
2.87490013099686514408404 -0.001767842268503034414139918 1.526667973265368516422313
2.873624183797055309241841 0.0007840521311169111997110837 1.52715986833406169864702
2.87617607819667231439098 -0.03411738546445028386067122 1.51029346366112005028981
2.866174771597973069958698 -0.01921856106628663102275922 1.519710456134974130293358
2.859509411530005706936208 -0.03411738546445028386067122 1.511277253798503084070148
2.866958823729087502130142 0.01921856106628659285884275 1.518726665997590874468415
2.858233464330195872094009 0.03510117560183632912096385 1.511769148867196266294854
2.87617607819667231439098 0.03411738546445026998288341 1.51029346366112005028981
2.857449412199081439922566 0.005303526805497453706916833 1.512752939004579078030588
2.864898824398163235116499 -0.01313098212967222545854984 1.520202351203666868428854
2.857449412199081884011775 -0.03156549106484188293997306 1.512752939004579300075193
2.941973359961818523800048 0.001840159770908256784208157 1.509866799809089332740086
2.933946719923637758142831 -0.01666666666666666990481716 1.517893439847273429066377
2.941973359961818523800048 -0.03149317356242506416030835 1.509866799809089332740086
2.925221360524745684017489 -0.0007840521311170724205741323 1.526005412655863757720454
2.924522641164035263727783 0.000613386590304727894601422 1.52609074542626999004824
2.925920079885454327950356 -0.03394671992363808288306615 1.509866799809089998873901
2.916581333896260730398353 -0.01806410538808847845992922 1.518149438158491904005132
2.909253413218788608674004 -0.03394671992363808288306615 1.510037465349902463529475
2.917194720486563142003433 0.01806410538808846111269446 1.517978772617679883438768
2.908554693858077300205878 0.03411738546445039488297368 1.510122798120308473812656
2.925920079885454327950356 0.03394671992363806900527834 1.509866799809089998873901
2.907941307267774888600798 0.002352156393345109734044351 1.51029346366112005028981
2.915882614535549421930227 -0.01509856240443862435141043 1.518234770928897692243709
2.907941307267774888600798 -0.03254928120222234932956695 1.510293463661120272334415
2.991968078090169846916524 0.001808468541013673021658481 1.509840390450843727876418
2.983936156180340137922258 -0.01666666666666666990481716 1.517872312360676989584363
2.991968078090169846916524 -0.03152486479231965399439019 1.509840390450843727876418
2.975296129551854296124702 -0.0006133865903044639997926391 1.525909516142159194629357
2.974688024833198163321413 0.000602822847006942701825194 1.525914798013808137966407
2.975904234270507320303523 -0.03393615618034028641458733 1.509840390450844616054837
2.966661384795017397664196 -0.01788287610397807508855195 1.517888157975624263684722
2.959237567603840268759541 -0.03393615618034027947569342 1.509850954194142946818147
2.967264207642021478505967 0.01788287610397806121076414 1.517877594232326821099832
2.958629462885185024134671 0.03394671992363777757173438 1.509856236065791446065987
2.975904234270507320303523 0.03393615618034027947569342 1.509840390450844616054837
2.9580266400381809432929 0.001840159770907965567504627 1.509866799809089110695481
2.966053280076361708950117 -0.01543989348606315294143432 1.517893439847272762932562
2.958026640038180055114481 -0.03271994674303425887362806 1.509866799809089110695481
3.04200892890412299962577 0.002053573424732042448925817 1.510044644520608381199622
3.034017857808246620976433 -0.01666666666666664214924154 1.518035715616489422785662
3.04200892890412299962577 -0.03127975990860128174819721 1.510044644520608381199622
3.025383113051410166605137 -0.0006028228470062501134774102 1.525985935898416911982167
3.024739439390450090883178 0.0006845244749138833326856934 1.525945085084463137548028
3.026026786712366689613418 -0.03401785780824716221015791 1.510044644520609935511857
3.016707517480619493710492 -0.01795401398858677624592595 1.517913163174629875840083
3.009360120045700526247856 -0.03401785780824716914905181 1.509962942892704163000417
3.017392041955530235242122 0.01795401398858681787928937 1.517994864802537202663757
3.008716446384740450525896 0.03393615618033962028077255 1.509922092078750388566277
3.026026786712366689613418 0.03401785780824718996573353 1.510044644520609935511857
3.008031921909829708994266 0.001808468541013014910939782 1.509840390450843061742603
3.016063843819659417988532 -0.0154610209726599202861852 1.517872312360676101405943
3.008031921909829708994266 -0.03273051048633287413158754 1.509840390450843061742603
3.092120474786051786963981 0.002722848716297136123509759 1.510602373930245434507924
3.084240949572103929199329 -0.01666666666666662480200678 1.518481899144200397699933
3.092120474786051786963981 -0.0306104846170362002166776 1.510602373930245434507924
3.075565354001313700393894 -0.0006845244749125285136509556 1.526249878476226395918047
3.074769283644472217531529 0.0009076162387703772546979075 1.526138332594297652988757
3.07636142435815074236416 -0.03424094957210362111243995 1.510602373930247432909368
3.066778212548595394792983 -0.01825880738034952113779674 1.518147261498417055491927
3.059694757691483690820178 -0.03424094957210360723465215 1.510379282166393277719862
3.067685828787361401737144 0.01825880738034961481286444 1.518370353262273875216692
3.058898687334642207957813 0.03401785780824594790372473 1.510267736284464534790573
3.07636142435815074236416 0.03424094957210366274580338 1.510602373930247654953973
3.057991071095876201013652 0.00205357342473079951955528 1.510044644520607715065807
3.065982142191753911930618 -0.01529761771684843771335061 1.518035715616488312562637
3.057991071095876201013652 -0.03264880885842771918170513 1.510044644520607715065807
3.142492044709888521225594 0.004952268259305251003887793 1.512460223549416671318113
3.134984089419776687179819 -0.01666666666666665602702935 1.519968178839541161906368
3.142492044709888521225594 -0.0283810650740280792647674 1.512460223549416671318113
3.126196947967059713846538 -0.000907616238768188575772311 1.527104564205827852418906
3.124917761804453242291402 0.001650756086443587499282271 1.526732994281990274387795
3.127476134129656859528268 -0.03498408941977691755109703 1.512460223549421556299421
3.117038236590503608169911 -0.01922503899187844728091434 1.518853469068036199374205
3.110809467462989807984286 -0.03498408941977691755109703 1.511717083701753949753765
3.118688992676939442105777 0.0192250389918784507503613 1.519596608915708024767355
3.109530281300384224607569 0.03424094957210153250537488 1.511345513777916149678049
3.127476134129656859528268 0.03498408941977691755109703 1.512460223549421112210212
3.107879525213949278850123 0.002722848716294997643144749 1.510602373930244546329504
3.115759050427898024793194 -0.01485143418913986712581732 1.518481899144198621343094
3.107879525213949278850123 -0.03242571709457472972637504 1.510602373930244102240295
3.194755442422993141349252 0.01853265453788817754277041 1.523777212114895585060026
3.189510884845985660973611 -0.01666666666666669419094582 1.529021769691937260304826
3.194755442422993141349252 -0.01480067879544516053214043 1.523777212114895807104631
3.180352173469432663921452 -0.001650756086439255894762757 1.532002929555871917344234
3.176438019669886703155726 0.006177551512652039618356259 1.529739531842765565272657
3.184266327268956420226687 -0.0395108848459854167245453 1.523777212114907797513297
3.168930064379773092753112 -0.02449497426575797734416007 1.522231576552643517175056
3.167599660602289368682705 -0.0395108848459854167245453 1.519250416688720628499709
3.175107615892403423174528 0.0244949742657579391802436 1.52675837197884267659731
3.163685506802743852006188 0.03498408941977254604793757 1.516987018975613832338922
3.184266327268956420226687 0.03951088484598538896896969 1.523777212114907797513297
3.157507955290113521584772 0.004952268259300876898643118 1.512460223549414672916669
3.165015910580227576076595 -0.01336515449380502179588248 1.519968178839536943058874
3.157507955290113521584772 -0.03168257724691089793900289 1.512460223549414672916669
3.226222787885021148213127 -0.01853265453796491823990067 1.544755442422986124739737
3.22097823030803098731667 0.004311563641340947390656613 1.539510884845972649159762
3.226222787885021148213127 0.02715578182064681822538432 1.544755442422986124739737
3.2157336727310177337813 -0.03951088484597254507635355 1.534266327268937857297715
3.21573367273101684560288 0.03951088484597252425967184 1.534266327268937857297715
3.205244557577013431171054 0.01853265453787531630291952 1.523777212114889145766483
3.210489115154026684706423 -0.004311563641430552797084719 1.52902176969192393762853
3.205244557577014319349473 -0.02715578182073642016236548 1.523777212114889367811088
2.742566188030719054324891 0.005397128184317151119997469 1.562830940153597580888345
2.735132376061438552738991 -0.01666666666666666296592325 1.570264752122878082474244
2.742566188030719054324891 -0.02793620514901618348546641 1.562830940153597580888345
2.720264752122876661388773 -0.01306858121045775811275291 1.585132376061439085646043
2.712830940153595271624454 -0.03153429060523026822293602 1.592566188030719587231943
2.712830940153595271624454 0.005397128184314758936324097 1.592566188030719587231943
2.727698564092151389814944 -0.03513237606143918001500026 1.562830940153590697505592
2.712830940153589498464726 -0.03513237606143918001500026 1.577698564092151700677391
2.712830940153589498464726 0.03513237606143918001500026 1.577698564092151700677391
2.727698564092151833904154 0.03513237606143918695389416 1.562830940153590919550197
2.7907123205335686577655 0.000490978615247296672902122 1.559778658081678814895099
2.78322439422821954480014 -0.01546683122594498700774768 1.567757563002274867614005
2.774591457251189829946725 -0.001799042728113613501261803 1.576390499979304582467421
2.773446446579509672147879 0.0004909786152473071896631951 1.577044532035737578468115
2.775136550202507823570386 -0.0326244765078589557538713 1.559669718976563146384251
2.782024558787490775557671 -0.04880016455927832508265851 1.551090896335605595623974
2.766012634610233167364868 -0.01895668801002758571683238 1.569610720066453080079327
2.75906980125620160393396 -0.03382431194858063344677035 1.560868843984307918759669
2.76650361322547810871697 0.01895668801002759265572628 1.568302655953592417148457
2.757924790584521446135113 0.03513237606144695157617264 1.561522876040740914760363
2.790112402813202496787426 0.0326244765078589488149774 1.559178740361318205032148
2.774536632482141218503102 0.03382431194858064732455816 1.559069801256202314476695
2.797600329118550721574366 -0.01666666666666668031315801 1.551199835440721708224032
2.797000411398184560596292 0.01306716034449053806532071 1.550599917720360654271872
2.797000411398184560596292 0.04640049367782387440550806 1.550599917720360654271872
2.757433811969276504783011 0.005397128184324917476999417 1.562830940153601577691234
2.764867623938553009566022 -0.01306858121045536766380302 1.570264752122886076080022
2.757433811969276504783011 -0.03153429060523564586571155 1.562830940153601577691234
3.241901886170436064560363 0.001411317022609022116610977 1.559509430852172418013879
3.233803772340872573209936 -0.0166666666666666664353702 1.567607544681740794345615
3.241901886170436064560363 -0.03192201631072431877722551 1.559509430852172418013879
3.225301402756143076544504 -0.0003380725027936093440329712 1.575639475258936439416857
3.22489714700097618305108 0.000470439007539566749101223 1.575573292006563486111759
3.224302225568088431373326 -0.02331465718691021551944864 1.563813110414084661670131
3.235724334657773315626628 -0.03380377234087290211350663 1.559038991844637900285875
3.22197740749602079546321 -0.006986063023037157940220432 1.572315479998814824469378
3.22197740749602079546321 0.006986063023037153603411742 1.572315479998814824469378
3.224302225568088431373326 0.02331465718691021205000169 1.563813110414084661670131
3.235724334657773315626628 0.03380377234087290211350663 1.559038991844637900285875
3.226222787884989173790018 -0.01853265453802969628394059 1.555244557576981323521181
3.220978230307967038470451 0.004311563641340948258018351 1.560489115153962824678047
3.226222787884989173790018 0.0271557818207115997388712 1.555244557576981323521181
3.218653412235899402560335 0.0003380725027936047903838468 1.568991484738693209521898
3.221573151740854346058995 -0.00617755151270398331075917 1.572249296746441871164279
3.292115013135243462016888 0.002690078811444729378621332 1.560575065676201633735332
3.28423002627048621349104 -0.01666666666666666990481716 1.568460052540965765643932
3.292115013135243462016888 -0.03064325452188861043101298 1.560575065676201633735332
3.275661473433384873743535 -0.0004704390075369343062264282 1.576131912440922100415719
3.274977907461039894343457 0.000896692937153156116071584 1.5759187854761140812343
3.276345039405725856340723 -0.03423002627048649104679612 1.560575065676204964404405
3.266879793631474626636191 -0.0180337986113567605439556 1.567820671646546815125589
3.259678372739058804796741 -0.03423002627048649104679612 1.560148811746593811022876
3.267776486568623628414798 0.0180337986113567605439556 1.568246925576161077131587
3.258994806766713825396664 0.03380377234087027227271705 1.559935684781785569796853
3.276345039405725856340723 0.03423002627048649104679612 1.560575065676204964404405
3.258098113829564823618057 0.001411317022606391191619224 1.559509430852171307790854
3.266196227659129647236114 -0.01572578865159721117628067 1.567607544681738573899565
3.258098113829564823618057 -0.03286289432580081354418056 1.559509430852171307790854
3.34340941125251323029488 0.01045646751503996954579812 1.567047056262526716352568
3.336818822505026815861129 -0.01666666666666667684371106 1.573637645010033558889972
3.34340941125251323029488 -0.02287686581829336679438924 1.567047056262526272263358
3.328037142703118789199834 -0.0008966929371498337953544366 1.578933835640268457112256
3.325846051648697176972291 0.003485489171693599910750727 1.577639437522996512797135
3.330228233757527078751082 -0.03681882250502693798566156 1.567047056262533821779925
3.317961064783939040268024 -0.02104884877551010252672015 1.569754450658234157245374
3.313561567090861359474729 -0.03681882250502694492455547 1.564458260028006364450448
3.321446553955619496178997 0.02104884877551009558782624 1.572343246892768942046814
3.311370476036439303157977 0.03423002627048316037772224 1.563163861910734420135327
3.330228233757527078751082 0.03681882250502693798566156 1.56704705626253404382453
3.307884986864758847247003 0.002690078811441400877951802 1.560575065676199857378492
3.315769973729516983951271 -0.01487328079237509349808111 1.568460052540962212930253
3.307884986864758847247003 -0.03243664039619158917515662 1.560575065676199857378492
3.383065649193089274859858 -0.01034376205942042284413596 1.593409411252510121670412
3.376418707717779632559996 0.009808393778932607970366675 1.586818822505019932478376
3.383065649193089718949068 0.02996054961728564919321016 1.593409411252510121670412
3.369828118970289665412565 -0.03681882250501970765821369 1.580228233757516420610045
3.369828118970289665412565 0.03681882250501970071931979 1.58022823375751664265465
3.356590588747490500054482 0.01045646751503273574890329 1.567047056262523163638889
3.363181177494980023112703 -0.009695688323320308943387147 1.573637645010026453462615
3.356590588747490500054482 -0.02984784416167333975788978 1.567047056262522719549679
2.69268839090780476297482 0.006130345446832200298481474 1.613441954539027722859146
2.685376781815609348313956 -0.01666666666666668725205191 1.620753563631220917073961
2.69268839090780476297482 -0.0272029878865011273680885 1.613441954539027722859146
2.670753563631214522189339 -0.01257976970212279672900468 1.635376781815609747994245
2.663441954539015110725586 -0.03128988485106565936577638 1.642688390907804940610504
2.663441954539014666636376 0.00613034544682009019389568 1.642688390907804940610504
2.678065172723404607779685 -0.03537678181560954815410014 1.61344195453901573245048
2.663441954539009337565858 -0.03537678181560955509299404 1.628065172723404341326159
2.663441954539009337565858 0.03537678181560953427631233 1.628065172723404785415369
2.678065172723404607779685 0.03537678181560952733741843 1.613441954539015954495085
2.726995489400659611334277 0.0003928933450938094928961419 1.623397403944434325140378
2.726292414709150069285215 -0.001799042728112621673114413 1.624493371981037492801647
2.7243711691039500522038 -0.002043448482287123224576675 1.626414617586237287838458
2.723152998190259133082236 0.0003928933450938146970665699 1.627239895154833693169394
2.718155528048362246096303 -0.01885860273987309543297641 1.616356485320249003478921
2.711424790770586401578157 -0.03513237606144595237545047 1.607826705314368886945431
2.71584138909807037975952 -0.01910300849404759915284302 1.619928286062635169884061
2.708922673350972587513752 -0.0337262266784271388941896 1.610966121833250053185793
2.716234282443161340836468 0.01910300849404760609173692 1.618277730925449020560336
2.707704502437281668392188 0.03537678181562046303421099 1.611791399401846902605939
2.719561677431374224767069 0.01885860273987309890242337 1.615963591975157154223552
2.710721716079076859529096 0.0337262266784271458330835 1.608922673350972276651305
2.72026475212288376681613 -0.01666666666666666296592325 1.614867623938553986562283
2.712830940153598824338133 -0.02793620514901179810451914 1.607433811969277037690063
2.712830940153598824338133 0.005397128184321532164136048 1.607433811969277037690063
2.70731160909218937504761 0.006130345446843135995274032 1.613441954539032829885059
2.714623218184379460637956 -0.01257976970211065366467285 1.620753563631231575214997
2.70731160909218981913682 -0.0312898848510644450593432 1.613441954539033051929664
3.391946739468289173657922 0.001752251590363019563556524 1.609805512122073789527121
3.383893478936578436133686 -0.01666666666666668031315801 1.617822865263470966112891
3.391946739468289173657922 -0.03158108174297031417454562 1.609805512122073789527121
3.375404654173554508389543 -0.0003109828593812511777008667 1.625715637032935756423058
3.374969089942241318169636 0.0005601456032453416573196892 1.62559105566100403628127
3.378555694871137493606739 -0.0204839619098151140552666 1.615318164648337884159446
3.388517603024422175650443 -0.03389347893657870119943354 1.60920945912851487413775
3.373496006551980119780865 -0.004128278102529685245070112 1.623806989411361811903589
3.373496006551980119780865 0.004128278102529638407536261 1.623806989411361811903589
3.378555694871137493606739 0.02048396190981507936079709 1.615318164648337884159446
3.388517603024422175650443 0.03389347893657868732164573 1.60920945912851487413775
3.383179818958981233123495 -0.01011542252763712734786594 1.60670475851338201422891
3.37664704724956354908727 0.009808393778932597562025819 1.613409517026763717595372
3.383179818958981233123495 0.02973221008550234328859929 1.60670475851338201422891
3.371587358930406175261396 0.0003109828593812046654276671 1.621898341789787423294911
3.373060442320666929560957 -0.003257149639903092301629339 1.623682408039429647672591
3.442714382814648033104277 0.006286296887869123085901268 1.613571914073220536778308
3.435428765629295888572869 -0.0166666666666666664353702 1.620857531258582895361542
3.442714382814648033104277 -0.02704703644546421065220088 1.613571914073220536778308
3.426791439009996498299415 -0.0006079865719312920694511471 1.627399425581928849027236
3.425439729576049252557368 0.002095432295963461574728193 1.626655702719912888198905
3.428105760883856323317787 -0.03542876562929679618019208 1.613534526513142886017249
3.41741038952868203537605 -0.01937008553456141812798563 1.618614429094172857404033
3.411439094217189271773805 -0.03542876562929679618019208 1.612035147210748586843465
3.419468434264556933044332 0.01937008553456141812798563 1.620076420836488617638338
3.410087384783242470120967 0.03394131990526462472335112 1.611291424348732626015135
3.428105760883856323317787 0.03542876562929678924129817 1.613534526513142441928039
3.408029340047367572452686 0.001800092559048956097900174 1.60982943260641686578083
3.416058680094734789634003 -0.01547456067954900045535727 1.617870706232156674531097
3.408029340047367572452686 -0.03274921391814696047806166 1.60982943260641686578083
3.486777173625198233963829 -0.005937209189447530295613564 1.642714382814645990293911
3.479317012590629865087521 0.01282488977317809177025598 1.63542876562929184736106
3.486777173625198233963829 0.03158698873580371296876379 1.642714382814645990293911
3.472031395405275944199275 -0.03542876562929228589915454 1.62814314844393237535769
3.472031395405275944199275 0.03542876562929228589915454 1.62814314844393237535769
3.457285617185353210345511 0.006286296887864616274310681 1.613571914073218538376864
3.464571234370707575322967 -0.01247580207476100752628234 1.620857531258578010380234
3.457285617185353210345511 -0.03123790103738662699006667 1.613571914073218538376864
2.677344179318164041347927 0.0006014616717555146784002229 1.673257282353591612888977
2.676623185912898605920418 -0.002043448482285964429294722 1.674579737430612169646338
2.667869590010175429029005 -0.01546374332316122549024762 1.683934795005088691510764
2.659836987512716799386681 -0.03273187166158341571131629 1.691967397502544656617829
2.65983698751271724347589 0.001804385015260978608608866 1.691967397502544212528619
2.668590583415438644010464 -0.01931157682070815811981035 1.666547134933152207736384
2.661999967728498894814493 -0.03537678181561929730003513 1.657913070763941343344072
2.659836987512715467119051 -0.03393479500508887053422669 1.67590219250762872960081
2.659836987512714578940631 0.03393479500508886359533278 1.67590219250762872960081
2.670032570225958856724446 0.01931157682070813730312864 1.665945673261401305254026
2.661278974323233903476194 0.03393479500508886359533278 1.659235525840962566235248
2.670753563631224736241165 -0.01666666666666667684371106 1.664623218184380748496665
2.663441954539019995706894 -0.02720298788650350046980364 1.657311609092190440861714
2.663441954539019995706894 0.00613034544682983933983067 1.657311609092190440861714
3.491882865059468432633594 0.001674400012961482515222444 1.65979153495349285307725
3.483765730118936865267187 -0.01666666666666666990481716 1.667720065065949386351463
3.491882865059468432633594 -0.03165893332037185425864578 1.65979153495349285307725
3.475332916973150165773632 -0.0001989596249076841830930734 1.675531876598057579030865
3.475017238767894589557272 0.0004323967856039920548000266 1.67541515801770946048066
3.480943027251542254418837 -0.01847029550796767255471664 1.666197249031619920245362
3.489961976612724559032586 -0.03376573011893733294863651 1.659170533339814124218492
3.474431102552499428526289 -0.002002588466208690166914241 1.674630062177407063828127
3.474431102552499428526289 0.002002588466208689299552503 1.674630062177407063828127
3.480943027251542254418837 0.01847029550796767255471664 1.666197249031619920245362
3.489961976612724559032586 0.03376573011893732600974261 1.659170533339814124218492
3.487139273745329504095025 -0.005213008949185586778096724 1.657647717305484658112391
3.480041212830892405349914 0.01282488977317809350497946 1.665295434610969405042624
3.487139273745329504095025 0.03086278849554177639014085 1.657647717305484658112391
3.473529288131849135368157 0.0001989596249076831802060639 1.67372824775675654862539
3.47411542434724385230993 -0.001371232055697014064546413 1.674513343597058723233317
3.54345243034026013972948 0.01071458204154045190659161 1.667262151701280892268642
3.536904860680519124827015 -0.01666666666666665602702935 1.673809721361029900776884
3.54345243034026013972948 -0.02261875129179288096414879 1.667262151701280892268642
3.528230077447019219505364 -0.0006828998003336281957809106 1.678912977247353000009866
3.526102863873259440907759 0.003571527347186024409220195 1.67746866347392686869
3.530087654397019214513875 -0.03690486068051933299383194 1.666992515077529990463745
3.518110980440092738774638 -0.02092109381418631036675393 1.669414881854105248137898
3.513420987730352607059103 -0.03690486068051934687161975 1.66404198934403169118923
3.521412871163518865103015 0.02092109381418632424454174 1.672095770963852645607517
3.511293774156592384372289 0.03401623313366697320958565 1.662597675570605115780154
3.530087654397019214513875 0.03690486068051934687161975 1.66699251507752976841914
3.507991883433166258043912 0.001924903027691139689725475 1.659916786460857718310535
3.515983766866332960177033 -0.01542466343930916361504302 1.667970568080679116818033
3.507991883433166258043912 -0.03277422990630948773649322 1.659916786460857718310535
3.582737848298705785055063 -0.01071458204155197914408948 1.693452430340257608420984
3.576190278638965658331017 0.009523611972296723571229649 1.686904860680514817161679
3.582737848298705785055063 0.02976180598614543496016616 1.693452430340257386376379
3.569642708979223755250132 -0.03690486068051537782430671 1.680357291020768251144091
3.569642708979223755250132 0.0369048606805153639465189 1.680357291020767807054881
3.556547569659742613623621 0.01071458204153647592038467 1.667262151701278671822593
3.563095139319484516704506 -0.009523611972312238937998785 1.673809721361025681929391
3.556547569659742613623621 -0.02976180598616093991859444 1.667262151701278671822593
2.675813106589370438115338 0.0004232898352258805695948196 1.724610183245856021017062
2.675724020671105041202509 -0.0006014616717570386329738685 1.725122558999347521790924
2.667513246337116505912945 -0.01582008699621995084783066 1.733756623168559274361655
2.659391557921393811625421 -0.03291004349811248869128733 1.741878311584279526158525
2.659391557921393811625421 0.001269869505672570732593418 1.741878311584279526158525
2.667602332255381458736565 -0.01769141817364956736913228 1.71700087058362393932498
2.659658815676187781917861 -0.03393479500509037627420383 1.708455892332677805711683
2.659391557921392479357792 -0.03375662316855918693159211 1.725634934752835691895712
2.659391557921392923447002 0.03375662316855920774827382 1.725634934752835691895712
2.667780504091911808473014 0.0176914181736496020636018 1.716577580748401388177626
2.659569729757921940915821 0.03375662316855920774827382 1.70896826808616908444094
2.667869590010177205385844 -0.01666666666666664908813544 1.71606520499490966535916
2.6598369875127176875651 -0.03152894831807081382768487 1.708032602497455032519724
2.6598369875127176875651 0.001804385015262519910417272 1.708032602497455032519724
3.592502378527328232848959 0.005014271163967055910948289 1.712511892636638055620324
3.585004757054656820969285 -0.01666666666666666296592325 1.720009514109311909990652
3.592502378527328232848959 -0.02831906216936627695979212 1.712511892636638055620324
3.576457840865377768579947 -0.0004271657118902162306173231 1.726885006577268955041404
3.575408546148770572159492 0.001671423721323998801135957 1.726262877572551923677224
3.578811754173214954022342 -0.0219096177351802319510643 1.715716614853733945622594
3.588930851180143211109907 -0.03500475705465733167187636 1.710840468915316714415553
3.573836365331120923372055 -0.005670116780403783481034896 1.724263531043012109833512
3.573836365331120923372055 0.005670116780403783481034896 1.724263531043012109833512
3.578811754173214954022342 0.0219096177351802319510643 1.715716614853733723577989
3.588930851180143211109907 0.03500475705465733167187636 1.710840468915316492370948
3.582737848298701344162964 -0.01071458204155949917035784 1.70654756965973852800289
3.57619027863895810881445 0.009523611972296733979570504 1.713095139319476878370097
3.582737848298701344162964 0.02976180598615296712949885 1.70654756965973852800289
3.571214889796864078164162 0.0004271657118902176400801474 1.72164205550875526462562
3.5727870706145137269516 -0.003571527347189567581919878 1.723641402038295300513937