# geometry NO_DATA 676
#  x  y  z
2.883913186473820111643818 0.01550696038569209650459513 1.632173627052358577671498
2.891956593236909789368383 0.03275348019284601841505378 1.640217033815448255396063
2.891956593236909789368383 -0.001739559421461830826874384 1.640217033815448255396063
2.861818438806368991578211 -0.0358178734323565742259099 1.647636312238726308265768
2.859454751045094944572611 -0.007211915621571148883595104 1.645272624477452261260169
2.861818438806368991578211 0.02139404218921427472399621 1.647636312238726086221163
2.88302757167163381524233 -0.0176436452951158236068796 1.632447718531146563236689
2.891559467748948009102605 -0.0339131864738205918152758 1.640399761467973727135927
2.876767999529330488428513 -0.02900308329874732443665053 1.638707290673449890050506
2.873360604462526168845216 -0.04527262447745208917559978 1.647239186750764305955386
2.876767999529330488428513 0.02900308329874732096720358 1.638707290673449890050506
2.873360604462526168845216 0.04527262447745209611449368 1.647239186750764305955386
2.88302757167163381524233 0.0176436452951158236068796 1.632447718531146563236689
2.891559467748948009102605 0.0339131864738205918152758 1.640399761467973727135927
2.875381290396505917783543 -0.0003971254879619008290592141 1.62422158411553141377226
2.874892801082280957558623 0.0005798531404872591613758326 1.624312947941794149642192
2.868633228939978074834016 0.01193929114411875630485937 1.630572520084097476456009
2.862862146111899708245119 -0.0003971254879619005037985624 1.636740728400137623310684
2.934063416600273477286009 0.01520650013278424667051425 1.631873166799450824981932
2.942031708300135939282427 0.03260325006639212125358895 1.639841458499313731067559
2.942031708300135939282427 -0.002190249800823613167410908 1.639841458499313731067559
2.932828595256072645724998 -0.01797660307409515434429181 1.632098511989131583987955
2.941451855159649131365995 -0.03406341660027453754899796 1.639991688625767718434645
2.924130220289268500266644 -0.03391318647382060569306361 1.640217033815448477440668
2.924130220289268500266644 0.0339131864738205918152758 1.640217033815448477440668
2.932828595256072645724998 0.0179766030740951265887162 1.632098511989132028077165
2.941451855159649131365995 0.03406341660027452367121015 1.63999168862576749639004
2.925440156696696991645013 -0.0005798531404872915790207899 1.623979990162815134624452
2.924785188492982968000433 0.0007300832669411832110545335 1.62405510522604190626339
2.916086813526178822542079 0.0155069603856920843615308 1.632173627052358799716103
2.908043406763089144817513 0.03275348019284602535394768 1.640217033815448477440668
2.908043406763089144817513 -0.00173955942146184752358784 1.640217033815448477440668
2.984078968836035627987258 0.01517539566126123451450525 1.631842062327927944664907
2.992039484418017369904419 0.03258769783063058395056188 1.639802577909910130671278
2.992039484418017369904419 -0.002236906508108117089955735 1.639802577909910130671278
2.982611026184272873251757 -0.01814238543631054023652638 1.631865390681570326947281
2.991309401151076574620902 -0.03407896883603601934087379 1.639818130145671570829791
2.973904875099587119535727 -0.03406341660027452367121015 1.639841458499313953112164
2.973904875099587563624937 0.03406341660027450979342234 1.639841458499313953112164
2.982611026184271985073337 0.01814238543631053329763247 1.631865390681570548991886
2.991309401151076574620902 0.03407896883603601240197989 1.639818130145671570829791
2.975380593869231038439693 -0.0007300832669411900415282202 1.623889322863826922827002
2.97464273448440952307692 0.000745635502702678880718179 1.623897098981707864950863
2.965936583399724657539309 0.01520650013278425534413163 1.631873166799451269071142
2.957968291699862195542892 0.03260325006639210737580115 1.639841458499313731067559
2.957968291699862195542892 -0.002190249800823593218090934 1.639841458499313953112164
3.033983050248011181793117 0.01536723283731027123177881 1.632033899503977147915634
3.041991525124005946167927 0.03268361641865513700366819 1.640042374379971690245839
3.041991525124005946167927 -0.001949150744034617958877487 1.640042374379971246156629
3.032539738536618401099076 -0.01806201908404755571146971 1.63189002162194030098874
3.041245889621302822547477 -0.03398305024801153567670653 1.639946455791946755553568
3.023881546745945669840694 -0.0340789688360360262797677 1.639802577909910130671278
3.023881546745945669840694 0.03407896883603604709644941 1.639802577909910130671278
3.032539738536617512920657 0.01806201908404760081428009 1.631890021621940523033345
3.041245889621303266636687 0.03398305024801155649338824 1.639946455791946977598172
3.025276899163325872166297 -0.0007456355027026682555368886 1.623977465333970693350807
3.024579222954635771003495 0.0006497169146782409698825944 1.623929506039958337026974
3.015921031163963483834323 0.01517539566126125706591043 1.631842062327927944664907
3.007960515581981741917161 0.0325876978306306117061375 1.639802577909910130671278
3.007960515581981741917161 -0.002236906508108122294126163 1.639802577909910130671278
3.083860144672119663056264 0.01561304398909380691806703 1.632279710655760718296392
3.091930072336059431847843 0.03280652199454689443847144 1.640349638319700931177181
3.091930072336059431847843 -0.001580434016359291878039972 1.640349638319700931177181
3.082622163630709621884307 -0.01784319492013126604024187 1.632095352291923262555429
3.09128035542138146496427 -0.03386014467211975742522156 1.640226732743808923942197
3.074025424627983227310324 -0.03398305024801151486002482 1.640042374379971246156629
3.074025424627983227310324 0.03398305024801152179891872 1.640042374379971246156629
3.082622163630709621884307 0.01784319492013128338747663 1.632095352291923262555429
3.09128035542138146496427 0.03386014467211976436411547 1.640226732743808923942197
3.075201952881447375887092 -0.0006497169146781677862359516 1.624148330203874834865019
3.074613688754715301598708 0.0005268113387864377817476624 1.624086877415928942269829
3.066016949751988462935515 0.01536723283731025908871448 1.632033899503977147915634
3.058008474875994142649915 0.03268361641865510924809257 1.640042374379971246156629
3.058008474875994142649915 -0.001949150744034596274834037 1.640042374379971246156629
3.133750992715213179451439 0.01583241433396741573713662 1.632498547785104392460198
3.141875496357606767361403 0.03291674038251345829619865 1.640623584643027932372661
3.141875496357606767361403 -0.001251911714578622051435852 1.640623584643027932372661
3.132752614071050434318977 -0.01761113738733247752188404 1.632334954689171002684134
3.14134935307377727298217 -0.03375099271521270205553833 1.640514567525547917625772
3.124210451046777414774169 -0.03386014467211977130300937 1.640350306374657396446537
3.124210451046777414774169 0.03386014467211977130300937 1.640350306374657396446537
3.132752614071050878408187 0.01761113738733247752188404 1.632334954689171002684134
3.14134935307377727298217 0.03375099271521270205553833 1.640514567525547917625772
3.125154253712486784877456 -0.0005268113387864371312263589 1.62431893494872747751856
3.124682018352153978213437 0.0004176593818793760152716099 1.624264358970274102489384
3.116139855327880514579419 0.01561304398909379997917313 1.632279710655760718296392
3.108069927663939857609421 0.03280652199454690137736534 1.640349638319700709132576
3.108069927663940745787841 -0.001580434016359307490551256 1.640349638319700931177181
3.177769768619345569504731 0.004885462863218421360189669 1.627115694243874033375619
3.180048981457086032520465 -0.0003270371877355984085999907 1.629721944269351130429868
3.176451214189678573518449 -0.006868497347079879911113665 1.638218796196552418109604
3.17057423408452976332228 -0.02842062687696497724765266 1.644109398098276386690486
3.17057423408452976332228 0.01468363218280524171155399 1.644109398098275942601276
3.177398486870592897446386 -0.005628026360722395045332878 1.627071449682857551266579
3.16890163494339205385586 -0.02196765583965348128669959 1.635151175443709137269366
3.165675149424736378733769 -0.03821879619655178805803786 1.643692271931926462968931
3.16890163494339205385586 0.02196765583965345006167702 1.635151175443709137269366
3.165675149424735934644559 0.03821879619655176030246224 1.643692271931926462968931
3.177398486870593785624806 0.00562802636072235080988424 1.627071449682857995355789
3.175119274032851990341442 -0.0004155263097683747344421312 1.624465199657381120346145
3.174747992284099318283097 0.0003270371877355550405130913 1.624420955096364638237105
3.166251140356898474692571 0.01583241433396740879824272 1.632500680857215780150682
3.158125570178449414981969 0.0329146073104024383670918 1.640624651179083404173298
3.158125570178449414981969 -0.001249778642467610795946387 1.640624651179083404173298
2.784306185031845792821059 0.0147209632696411775454326 1.681387629936307748224067
2.792153092515923251681897 0.03236048163482056760908989 1.689234537420384762995695
2.792153092515923251681897 -0.002918555095538181293202129 1.689234537420384762995695
2.789797345196417754920049 -0.002243185764298335094918402 1.692040530960716271380306
2.781837876157134736843091 0.01517120949046774427970696 1.684081061921432587169534
2.789797345196417754920049 0.03258560474523385791512098 1.692040530960716271380306
2.783385578134818238993375 -0.0179289723970269369857089 1.682412726436305350219413
2.791863638484075593737543 -0.0343061850318460634379214 1.689917935087050127052066
2.7825252879915121084764 -0.01770384928661365708801867 1.683273016579611702780994
2.790255619752669780098131 -0.03408106192143278700967812 1.691751076928868835480557
2.7825252879915121084764 0.01770384928661358769907963 1.683273016579611480736389
2.790255619752670668276551 0.0340810619214327453763147 1.691751076928868835480557
2.783385578134818238993375 0.01792897239702686412732291 1.682412726436305572264018
2.791863638484075593737543 0.03430618503184602874345188 1.689917935087049905007461
2.775828124682588882166101 -0.0002894540318475778218135219 1.673882421285563193436019
2.775196971817408986282771 0.0009728516985126535888267485 1.674224120118896097508809
2.774336681674102411676586 0.0007477285880993739079769522 1.67508441026220200598118
2.774107544395976621132149 -0.0002894540318475778218135219 1.675603001572175454469971
2.845272624477451550717433 -0.00721191562157100403418486 1.659454751045095877159952
2.847636312238725597723032 0.02139404218921450023804809 1.661818438806369702120946
2.847636312238725597723032 -0.03581787343235650483697086 1.661818438806369702120946
2.837843701357622983039164 -0.02957880950929825392137218 1.675904410213505002502643
2.846663460540212575722308 -0.04527262447745217244232663 1.672784878251975637653004
2.823540722452230866679201 -0.03430618503184608425460311 1.6892345374203849850403
2.823540722452230866679201 0.03430618503184607731570921 1.689234537420384762995695
2.837843701357622983039164 0.02957880950929824351303132 1.675904410213505002502643
2.846663460540212575722308 0.04527262447745215856453882 1.672784878251975637653004
2.836452865294861958034289 -0.0009728516985127583227566106 1.662574283006624797920381
2.829996793873546412356745 0.01193929114411882222435146 1.668057502729427987731015
2.815693814968153851907573 0.01472096326964120356628474 1.681387629936307748224067
2.807846907484077281225154 0.03236048163482062312024112 1.689234537420384762995695
2.807846907484076837135945 -0.002918555095538209482458614 1.6892345374203849850403
2.861818438806368991578211 -0.04527262447745217244232663 1.657091063283822052198957
2.857091063283821341656221 -0.04527262447745217244232663 1.661818438806369702120946
2.857091063283821341656221 0.04527262447745217244232663 1.661818438806369702120946
2.861818438806368991578211 0.04527262447745217244232663 1.657091063283821608109747
2.861818438806368991578211 -0.03581787343235665055374284 1.652363687761274180232363
2.859454751045094944572611 -0.007211915621571153220403794 1.654727375522548005193357
2.861818438806368991578211 0.0213940421892143475823822 1.652363687761274180232363
2.854727375522547294650622 -0.00721191562157100403418486 1.659454751045095877159952
2.852363687761273247645022 0.02139404218921449676860114 1.661818438806369702120946
2.852363687761273247645022 -0.03581787343235650483697086 1.661818438806369702120946
3.188236951594705548274078 0.006859430143923121378501939 1.67352609681059005808379
3.194118475797353084999486 0.02842971507196147967766464 1.679407621013237594809198
3.194118475797353084999486 -0.01471085478411522304287296 1.679407621013237594809198
3.182350893790479862133225 -0.03823695159470502646925638 1.667644572607942521358382
3.182350893790479862133225 0.03823695159470501259146857 1.667644572607942521358382
3.176469369587831881318607 -0.01666666666666668378260496 1.661763048405294984632974
3.170583311783606639266964 -0.01863154575237484927852094 1.655881524202647669952171
3.170583311783606195177754 0.01470178758095848359221947 1.655881524202647669952171
3.234477071573351736333279 0.01437919018662972905908681 1.681045856853296438515599
3.24223853578667586816664 0.03218959509331486418259871 1.688807321066620348304355
3.24223853578667586816664 -0.003431214720055406064425085 1.68880732106662057034896
3.226549775061285263433319 -0.02271402316805690504986082 1.675406036821266875236347
3.237334917525304334162684 -0.03447707157335180849777601 1.685047441045267380133055
3.217644572607942343722698 -0.03823695159470510973598323 1.679407621013237816853803
3.217644572607943231901118 0.03823695159470509585819542 1.679407621013237594809198
3.226549775061285263433319 0.02271402316805688770262606 1.675406036821266653191742
3.237334917525304334162684 0.0344770715733518015588821 1.68504744104526715808845
3.223691929109332221514705 -0.004903618261371768191625442 1.671404452629295933618891
3.220668250858637282618702 0.001143738240018450690385632 1.669524512618619560555544
3.2117630484052952510865 0.006859430143923121378501939 1.673526096810590502173
3.205881524202648158450302 0.02842971507196155947494454 1.679407621013237594809198
3.205881524202647714361092 -0.0147108547841152993707059 1.679407621013237816853803
3.283863837727277967815098 0.0156092105769828019129486 1.682274100894546764450865
3.291931918863639339178917 0.03280638163759388992168908 1.690343958380010391806536
3.291931918863639339178917 -0.001587960483628270916961478 1.690343958380010391806536
3.281886662806761556510082 -0.01834090930062953067603004 1.681356158412817158875896
3.290791865260104476220704 -0.03386383772727774577049331 1.689732632821317581672815
3.273288077276456320419129 -0.03447707157335178074220039 1.688811005703104273223403
3.273288077276456320419129 0.03447707157335176686441258 1.688811005703104273223403
3.281886662806761556510082 0.01834090930062951679824224 1.681356158412817158875896
3.290791865260104476220704 0.03386383772727774577049331 1.689732632821317581672815
3.274958635273935048104477 -0.001143738240018459147162577 1.673897626486045897564736
3.274121513956953499757674 0.0005305043939443990219650971 1.673591009563009324168092
3.265522928426648263666721 0.01437919018662972212019291 1.681045856853296216470994
3.25776146421332413183336 0.0321895950933148364270231 1.688807321066620348304355
3.25776146421332413183336 -0.003431214720055386115105112 1.688807321066620348304355
3.326830378290518641648532 0.003012069184280438162437665 1.676181690893762565863767
3.328174241033470259765181 -0.0003243436983778833502048422 1.677849897335091711170207
3.322716715833085920905887 -0.01059070670238993101819336 1.686345402517613667470187
3.315915327889751296197574 -0.03026944255333704342225687 1.69317270125880670050833
3.315915327889751296197574 0.009088029148557193528934484 1.69317270125880670050833
3.326406508116246385498016 -0.003859809532825253172716451 1.676082164417868058947647
3.317911002933723985108827 -0.0202021325011140437388768 1.684048941555548184467739
3.312877347907612346489259 -0.03634540251761378404360414 1.692643973213965091773048
3.317911002933723985108827 0.02020213250111402986108899 1.684048941555548184467739
3.312877347907612346489259 0.03634540251761378404360414 1.692643973213964869728443
3.326406508116246385498016 0.003859809532825227151864311 1.676082164417868058947647
3.325062645373295655559787 -0.0005233966501669313348132917 1.674413957976538913641207
3.32463877519902339940927 0.0003243436983778568956718336 1.674314431500644406725087
3.316143270016500554930872 0.01560921057698280364767207 1.682281208638324532245178
3.308071635008250410692199 0.03279927389381639274423819 1.69034751225189916468139
3.308071635008250410692199 -0.001580852739850772655308409 1.69034751225189916468139
2.787745421154293357091092 -0.004705494614848437090470767 1.74245091576914123976394
2.780196336923435040944241 0.01352967025676769970143898 1.734901831538282479527879
2.787745421154293357091092 0.03176483512838382261556092 1.74245091576914123976394
2.789797345196417754920049 -0.03408106192143277313189031 1.723878407117850786178792
2.781427491348710034912983 -0.01898289345971556144054837 1.732995989553658633397504
2.788566190771143205040516 -0.03490183153828278761476867 1.741703187181041778686108
2.781427491348709146734564 0.01898289345971558572667703 1.732995989553658633397504
2.788566190771143205040516 0.03490183153828280149255647 1.741703187181041778686108
2.789797345196418199009258 0.03408106192143278700967812 1.723878407117850786178792
2.789797345196417754920049 -0.002243185764298326854981891 1.707959469039283639801852
2.781837876157134292753881 0.01517120949046779111724081 1.715918938078567101968019
2.789797345196417754920049 0.0325856047452338995484844 1.707959469039283639801852
2.773468022309426572746816 0.001568498204949479463837791 1.725036520514374949186731
2.773057637501000982638288 -0.0007477285880994242149577556 1.726194633910899334239275
3.336379928409453743398672 0.01057347651442611460859133 1.727240143181092868474025
3.343189964204726472019047 0.03028673825721316451020648 1.73405017897636604118361
3.343189964204726472019047 -0.009139785228360928354129911 1.7340501789763655970944
3.32956127752019881427259 -0.0363799284094537128675384 1.72043010738581925167523
3.32956127752019881427259 0.0363799284094537128675384 1.72043010738581969576444
3.322751241724925641563004 -0.01666666666666666990481716 1.713620071590546078965644
3.315932590835670712436922 -0.02421077829293620878314819 1.706810035795272906256059
3.315932590835670712436922 0.009122555040397124087592218 1.706810035795272906256059
3.384070552789804509075111 0.01519222775372383073266835 1.731858894420390093671358
3.39203527639490198808403 0.03259611387686191241730427 1.739823618025488016769486
3.39203527639490198808403 -0.002211658369414245747797132 1.739823618025488016769486
3.379132050447388735392451 -0.02045048119925841831334701 1.728394830990916730684148
3.388988681318782170137638 -0.03407055278980475332417654 1.73751424240583896008161
3.370430107385819162857388 -0.03637992840945366429528107 1.734050178976365375049795
3.370430107385819162857388 0.03637992840945365735638717 1.73405017897636604118361
3.379132050447387847214031 0.0204504811992583974966653 1.728394830990916952728753
3.388988681318782170137638 0.03407055278980473944638874 1.73751424240583896008161
3.374213921918411074329924 -0.003046595076120344001285867 1.722739483005467864273896
3.372322014652115118593656 0.0007372194564713970346692129 1.721584795195643780019168
3.363620071590545990147803 0.01057347651442611287386786 1.727240143181092424384815
3.356810035795272373349007 0.03028673825721310899905525 1.73405017897636604118361
3.356810035795272373349007 -0.009139785228360872842978679 1.7340501789763655970944
3.426907799157000944489937 0.003112380490484850745908085 1.726204581333483645266824
3.428288184946364225424986 -0.0003516089117591407334564857 1.727936576034605486995588
3.422891427647636763964556 -0.0104419056856968409108255 1.736445713823818071119831
3.416114284559545133390657 -0.03022095284284836980148725 1.743222856911909035559916
3.416114284559545133390657 0.009337141471454703592347535 1.743222856911909035559916
3.426363384972886283463822 -0.004201208858715419630636134 1.726011776061127322989819
3.417854247183673255250369 -0.0205162666136229632218857 1.733783694393868701766337
3.413001904069060010726844 -0.03644571382381821267326671 1.742485637455437608167585
3.417854247183673255250369 0.02051626661362293546631008 1.733783694393868701766337
3.413001904069060898905263 0.03644571382381819879547891 1.742485637455437608167585
3.426363384972886283463822 0.004201208858715383201443139 1.726011776061127322989819
3.424982999183523446617983 -0.000737219456471428476532215 1.724279781360005481261055
3.424438584999408341502658 0.0003516089117591043042634902 1.72408697608764915898405
3.415929447210195313289205 0.01519222775372383246739183 1.731858894420390537760568
3.407964723605097834280286 0.03259611387686191241730427 1.739823618025488238814091
3.407964723605097390191077 -0.002211658369414244446754525 1.739823618025488238814091
2.78964756881906517094194 -0.002422917417122186743705381 1.792070486236186699358086
2.78171805505525249202492 0.01505138838858520629326865 1.784140972472373576351856
2.78964756881906517094194 0.03252569419429260366705137 1.792070486236186699358086
2.787745421154293357091092 -0.03490183153828282230923818 1.772647252692575614574366
2.780576766456388959625201 -0.01904280401065688160811007 1.781384405595429321067513
2.788886709753156001312391 -0.03414097247237405513553554 1.79050198803123739033083
2.780576766456388959625201 0.01904280401065688854700397 1.781384405595429321067513
2.788886709753156001312391 0.03414097247237405513553554 1.79050198803123739033083
2.787745421154293357091092 0.03490183153828282924813209 1.772647252692575614574366
2.787745421154293357091092 -0.004705494614848474387025501 1.75754908423085831614685
2.780196336923435040944241 0.01352967025676768755837465 1.765098168461716854338306
2.787745421154293357091092 0.03176483512838385037113653 1.75754908423085831614685
2.773027682225530643478351 0.0008076391390407310468327329 1.773835321364570560831453
2.77340811175848500624852 -0.001568498204949491173221254 1.775023390036565729133144
3.436445713823817804666305 0.01044190568569691029976454 1.777108572352363413671128
3.443222856911908991150995 0.03022095284284850857936533 1.783885715440454378111212
3.443222856911908991150995 -0.009337141471454675836771919 1.783885715440454378111212
3.429668570735727062270826 -0.03644571382381826124552404 1.770331429264272671275648
3.429668570735727062270826 0.03644571382381825430663014 1.770331429264272671275648
3.422891427647636319875346 -0.01666666666666667684371106 1.763554286176181706835564
3.416114284559545133390657 -0.02399619186187856856307121 1.75677714308809074239548
3.416114284559545133390657 0.009337141471454764307669194 1.75677714308809074239548
3.483966814880633755535655 0.01617515089525258659142182 1.782454093900324831878379
3.491983407440316433678618 0.03347529910922049378729781 1.790858410121601851372475
3.491983407440316433678618 -0.001124997318715319303411571 1.790858410121601851372475
3.480760239840783754061704 -0.0204125287044527800595084 1.780126758293482769346383
3.490649763419359619120996 -0.03396681488063457710069315 1.789770523986351502543357
3.472110165733799824749894 -0.03644571382381820573437281 1.785664451909982020083589
3.472110165733799824749894 0.03644571382381819879547891 1.785664451909982020083589
3.480760239840783754061704 0.02041252870445276618172059 1.780126758293482769346383
3.490649763419359619120996 0.03396681488063456322290534 1.789770523986351502543357
3.474077291302057890476362 -0.003112380490484876333079356 1.7728103282074558766368
3.472204360283164703560033 0.0006334815473012305690053703 1.771570878735864162933922
3.463554286176180774248223 0.01044190568569691203448802 1.777108572352363413671128
3.456777143088090475941954 0.0302209528428484530682141 1.783885715440454378111212
3.456777143088090475941954 -0.009337141471454618590897212 1.783885715440454378111212
3.502533050688182658660708 -0.04577318213242793920603191 1.79830623282061097256701
3.503807176113174826070917 -0.01582738315787266675238598 1.796612465641222122769705
3.502533050688182658660708 0.01411841581668260570125994 1.79830623282061097256701
3.502113408933785088095192 -0.04661246564122194235846308 1.798060474934903840704692
3.502113408933785976273612 0.04661246564122192848067527 1.798060474934903840704692
3.501693767179388405708096 0.04612094986980785904506774 1.797814717049196930886978
3.503387534358777699594611 0.01617515089525258659142182 1.796366707755514990907386
3.501693767179388405708096 -0.01377064807930268586222411 1.797814717049196930886978
2.792431131057750093305003 0.004586786346496858797483487 1.812155655288747446718389
2.784862262115498143799641 -0.01666666666666666296592325 1.819724524230998063956122
2.792431131057749205126584 -0.02874654698683647147117171 1.812155655288747446718389
2.776366376896288734599239 -0.0003251037717518451904304133 1.826691480668041656088008
2.775439360619330386725778 0.001528928782165601529124954 1.826089568162834630982161
2.782886339015854915146519 -0.0190032345878729733157364 1.817027311488228935587586
2.791623491918708399595062 -0.03486226211549892789465233 1.810626726506581629649872
2.775198092935686311477639 -0.002661671692958157003916497 1.825523196707438344787988
2.775198092935686311477639 0.002661671692958161340725187 1.825523196707438344787988
2.782886339015854915146519 0.01900323458787297678518335 1.817027311488228935587586
2.791623491918708399595062 0.03486226211549892789465233 1.810626726506581629649872
2.78964756881906517094194 -0.002422917417122170263832359 1.807929513763812723325941
2.7817180550552516038465 0.01505138838858520629326865 1.815859027527625624287566
2.78964756881906428276352 0.03252569419429258285036966 1.807929513763812723325941
2.774029808975083000177619 0.0003251037717518491477683429 1.824354912746835255532574
2.774271076658727963604179 -0.0008076391390407102301510212 1.824921284202231319682141
2.837844344711252464463769 -0.004586786346496921247528622 1.842431131057749915669319
2.830275475769001847226036 0.01360880910233540352916037 1.834862262115498854342377
2.837844344711252464463769 0.03180440455116773090793458 1.842431131057749915669319
2.822706606826751229988304 -0.03486226211549899034469746 1.827293393173248681193854
2.822706606826751229988304 0.03486226211549899034469746 1.827293393173248681193854
2.807568868942251327780468 0.004586786346496920380166884 1.812155655288747446718389
2.815137737884501056839781 -0.01360880910233540526388385 1.819724524230998063956122
2.807568868942250439602049 -0.03180440455116773090793458 1.812155655288747446718389
3.534397255214202449025152 0.01457000386347263171105126 1.831221080050865923638526
3.542198627607100469560919 0.03230059241100978473237859 1.839038042923037519216223
3.542198627607100469560919 -0.003160584684064529983893443 1.839038042923037519216223
3.525951602694831876760873 -0.03439725521420382292614448 1.823419707657967681058153
3.525951602694830988582453 0.03439725521420382292614448 1.823419707657967681058153
3.518150230301932968046685 -0.0166666666666666594964763 1.815602744785796085480456
3.509704577782561507603987 -0.03143012794366883272401125 1.807801372392897842900084
3.509704577782561507603987 0.001903205389664500146729154 1.807801372392897842900084
3.57583444275525907940505 0.001090759460581396762465789 1.825256316705322179316795
3.576235290973065694686284 -0.000289063024968262097681021 1.825946227948097133619854
3.568899030817933581971602 -0.01438345728529531741823888 1.834424092793914606858152
3.561161922444995298064896 -0.03214088341254337649610662 1.842212046396957569882602
3.561161922444995298064896 0.003373968841952747731161022 1.842212046396957347837997
3.575189225011256688446792 -0.002381194948585400438662019 1.824900161986288793514177
3.566711360165439437253099 -0.01875879859028380461372087 1.832329695430509275411168
3.560020317754309715496674 -0.03442409279391472898268489 1.841163714995360578541295
3.566711360165438993163889 0.01875879859028380114427392 1.832329695430509275411168
3.560020317754308827318255 0.03442409279391472898268489 1.841163714995360578541295
3.575189225011256688446792 0.002381194948585396101853329 1.824900161986288349424967
3.574788376793450517254769 -0.001001372463035741199044448 1.824210250743513839211118
3.574143159049448570385721 0.0002890630249682581945532001 1.823854096024480009319291
3.565665294203630431013607 0.01457000386347262130271041 1.831283629468700491216282
3.557832647101815126688962 0.03223804299317502286559289 1.839069317631955025049706
3.557832647101815126688962 -0.003098035266229782862257291 1.839069317631955025049706
2.842194320729238832257124 0.003165924375434151730873689 1.860971603646195404735408
2.834388641458478019785616 -0.0166666666666666664353702 1.868777282916956217206916
2.842194320729238832257124 -0.03016740895789917636937716 1.860971603646195404735408
2.82589104864382401061107 -0.0003285189626423641248709195 1.876219567606465687958917
2.825199135099929925729612 0.00105530812514473141053295 1.875856173025214346239409
2.831567594222657024971568 -0.0192509035739770288653272 1.866429856338156056949629
2.840665391947073459277817 -0.03438864145847806558231596 1.859916295521050644268257
2.824598930190168832865538 -0.002912755869952726554827915 1.874927449152810510213385
2.824598930190168388776328 0.002912755869952723085380963 1.874927449152810510213385
2.831567594222657024971568 0.01925090357397702539588025 1.866429856338156278994234
2.840665391947073459277817 0.03438864145847805864342206 1.859916295521050644268257
2.837844344711252464463769 -0.004586786346496890022506054 1.857568868942250706055574
2.830275475769001847226036 0.01360880910233540352916037 1.865137737884501101248702
2.837844344711252464463769 0.03180440455116770315235897 1.857568868942250706055574
2.823306811736513211030797 0.0003285189626423602217430986 1.873635330699155332467853
2.82390701664627474798408 -0.001528928782165631453104915 1.874564054571559168493877