# geometry NO_DATA 868
#  x  y  z
1.198808228028579669910414 0.04284936817147673437933264 0.7440411401428971283067426
1.197616456057159162185144 -0.01666666666666666296592325 0.7452329121143177470543151
1.198808228028579669910414 0.00951603483814340324331571 0.7440411401428971283067426
1.195232912114317480600789 0.01189957878098350102513692 0.74761645605715898454946
1.194041140142896306741704 -0.01905021060950880598672263 0.74880822802857949227473
1.194041140142896306741704 0.04284936817147580456754952 0.74880822802857949227473
1.196424684085738654459874 -0.04761645605715897344722976 0.74404114014289746137365
1.194041140142896972875519 -0.04761645605715897344722976 0.74642468408573847682419
1.194041140142896972875519 0.04761645605715897344722976 0.74642468408573847682419
1.196424684085738654459874 0.04761645605715897344722976 0.74404114014289746137365
1.242666121814242075060974 0.005996730885449663706054935 0.7133306090712074887250083
1.235332243628484150121949 -0.01666666666666665602702935 0.7206644872569670789985707
1.242666121814242075060974 -0.02733660244788367610357938 0.7133306090712077107696132
1.219857348933238272437052 -0.01428312272382533699988105 0.7341404716570637534189814
1.21171633242375031969118 0.001998910295150965743538052 0.7402825778714008375658295
1.227998365442726669272133 -0.03533224362848428473649065 0.7133306090712092650818477
1.210524560452329589921305 -0.03294869968564296397461888 0.7390908058999803298405595
1.211331698776060061817361 -0.03533224362848428473649065 0.7256148214998854317769883
1.212523470747480569542631 0.03294869968564297785240669 0.7268065934713059395022583
1.203190682266571887026885 0.04761645605715868201368579 0.7317569277142226269461389
1.227998365442726447227528 0.03533224362848430555317236 0.7133306090712092650818477
1.201191771971420685360954 0.04284936817147644294578868 0.7440411401428970172844402
1.202383543942841415130829 0.01189957878098442563274961 0.7452329121143175250097102
1.201191771971420685360954 -0.0190502106095075882108425 0.7440411401428971283067426
1.292124961377612013535554 0.002749768265665878709536063 0.7106248068880535173619251
1.284249922755224426751397 -0.01666666666666665602702935 0.7184998455104452119712732
1.292124961377612013535554 -0.03058356506766746196745999 0.7106248068880535173619251
1.27491713427431663241407 -0.001998910295148819890598269 0.7269160445694656802473332
1.273459384415796424860901 0.0009165894218913371756241038 0.7274572050060943428917426
1.276374884132837062011845 -0.03424992275522464185710803 0.7106248068880578472317211
1.266125506230037611743455 -0.01958216638370681092484737 0.7201233268203359738635072
1.259708217466170232512468 -0.03424992275522464185710803 0.7117071277613199464795457
1.267042095651929267674518 0.01958216638370684214986994 0.7190410059470783155077811
1.258250467607650247003903 0.03533224362848218225163777 0.7122482881979484981016526
1.276374884132837062011845 0.03424992275522466267378974 0.7106248068880578472317211
1.257333878185758813117445 0.005996730885447544741329029 0.7133306090712064895242861
1.26466775637151762623489 -0.01266884607636795806451246 0.7206644872569648585525215
1.25733387818575859107284 -0.03133442303818347041133308 0.7133306090712064895242861
1.342019799462310425397504 0.002118796773839699831842864 0.7100989973115293674155168
1.334039598924620317887957 -0.01666666666666666296592325 0.7180791978492297999991933
1.342019799462310425397504 -0.03121453655949363650834449 0.7100989973115293674155168
1.325247970880343517663391 -0.0009165894218872368314279808 0.7261645603022304218399086
1.324436543373756380859163 0.0007062655912870336328418519 0.7262697222175306110969473
1.326059398386930654467619 -0.03403959892462036368465661 0.7100989973115400255565532
1.316561504751366573628957 -0.01828952167984094004382634 0.7183946835951409148890434
1.309392731720263824968242 -0.03403959892462037062355051 0.7103093211421511732339695
1.317267770342653410153844 0.01828952167984094004382634 0.7181843597645407584195709
1.308581304213676688164014 0.03424992275522057566528034 0.7104144830574512514687058
1.326059398386930654467619 0.03403959892462037062355051 0.7100989973115400255565532
1.307875038622389851639127 0.002749768265661793002069269 0.7106248068880512969158758
1.315750077244779436824729 -0.01483348782289211492679826 0.7184998455104409931237797
1.307875038622389851639127 -0.03241674391144602068726144 0.7106248068880514079381783
1.392000681035083342607095 0.002004086210448921719085025 0.7100034051753656427763417
1.384001362070166774032032 -0.01666666666666666990481716 0.7180027241403077464809712
1.392000681035083342607095 -0.03132924712288441548846407 0.7100034051753656427763417
1.375314895941194714978906 -0.0007062655912778484888769892 0.7260211615324722034259253
1.374627748777138780411633 0.0006680287368334726898905229 0.7260402799596944456439473
1.376002043105248873189339 -0.03400136207016680317538615 0.7100034051753897346159761
1.366647548239444676099197 -0.01804096099477798392785033 0.7180600794219984539523693
1.359335376438582265734567 -0.03400136207016679623649225 0.7100416420298583108916546
1.367315576976276592091608 0.01804096099477799086674423 0.7180218425675541915609301
1.358648229274526553211899 0.03403959892461118352802174 0.7100607604570804420873742
1.376002043105248873189339 0.03400136207016681011428005 0.7100034051753897346159761
1.357980200537694637219488 0.002118796773830514904718436 0.710098997311524593456511
1.365960401075388741531924 -0.01525413548411400262161397 0.718079197849220585148089
1.357980200537694637219488 -0.03262706774205851451009508 0.710098997311524593456511
1.442030263410574608684556 0.002181580463340142099493146 0.710151317052765684856297
1.434060526821149261778032 -0.01666666666666666990481716 0.7181210536422448775795147
1.442030263410574608684556 -0.03115175286999319684277943 0.710151317052765684856297
1.425393179119409658994755 -0.0006680287368123150265955545 0.7260612078562223015154586
1.424695568007095403118001 0.0007271934878158926082031277 0.7260316254807205327281849
1.426090790231718807845596 -0.03406052682114923957357178 0.710151317052814423647078
1.416696249042168398446506 -0.01806188889129487634699345 0.7180323065157887540976844
1.409424123565052200390824 -0.03406052682114923957357178 0.7100921523018600689525215
1.417423442529979427106923 0.0180618888912948728775465 0.718091471266791847583022
1.40872651245273794451407 0.03400136207014564648787314 0.7100625699263583001652478
1.426090790231718807845596 0.03406052682114923263467787 0.7101513170528145346693805
1.407999318964927137898258 0.002004086210427758092678108 0.7100034051753550956576078
1.415998637929854142569752 -0.01533060919305122456191004 0.7180027241402868742881083
1.407999318964927137898258 -0.03266530459653019941024255 0.7100034051753550956576078
1.492133753314304644987942 0.002802519885627014709778004 0.7106687665713220525276483
1.484267506628609512020489 -0.01666666666666665602702935 0.7185350132571182157903422
1.492133753314304644987942 -0.0305308134477063237988137 0.7106687665713221635499508
1.475570576551390455932733 -0.0007271934877713910963525912 0.7262977700391619606534732
1.474739893159866754857035 0.0009341732952763255820941013 0.7261942801354095422539103
1.47640125994290238864437 -0.03426750662860963969613692 0.7106687665714114254811307
1.466770156570419203490019 -0.01832803344971437389809843 0.7182245435459526650134876
1.459734593276235781189598 -0.03426750662860963969613692 0.710461786763998071059234
1.467704329865683554601219 0.01832803344971439818422709 0.7184315233534550593219592
1.4589039098847120801139 0.03406052682110475432475383 0.7103582968602456526596711
1.47640125994290238864437 0.03426750662860965357392473 0.7106687665714113144588282
1.457969736589447506958095 0.002181580463295661187483887 0.710151317052743369373502
1.465939473178895280369716 -0.01521227969114241108938845 0.7181210536422002466139247
1.457969736589447506958095 -0.03260613984558049377460165 0.710151317052743369373502
1.542505624413602394184863 0.005033746481221305392461662 0.712528122067618729928995
1.535011248827204521916201 -0.01666666666666663867979459 0.7200224976542131116730161
1.542505624413602394184863 -0.02829958685211202834564048 0.7125281220676189519735999
1.526210828846275013859213 -0.0009341732951926367753414659 0.727145002141467822198706
1.524904784451742933981677 0.001677915493871575238274407 0.7267731310421284840472822
1.527516873240777339759688 -0.03501124882720485498310836 0.7125281220677859295165035
1.517038537766005834583893 -0.01927875545573085394601698 0.7189068843563740651703142
1.510850206574110732304916 -0.03501124882720485498310836 0.7117843798692862211652255
1.5187164532598478317027 0.01927875545573090598772126 0.719650626555040529019891
1.509544162179578652427381 0.03426750662852602602459484 0.7114125087699467719914992
1.527516873240777339759688 0.03501124882720488273868398 0.7125281220677857074718986
1.507866246685736877353179 0.002802519885543389328852459 0.7106687665712803081419224
1.515732493371473754706358 -0.0147983200763159433721583 0.7185350132570347270188904
1.507866246685736877353179 -0.03239916003817529949193599 0.7106687665712804191642249
1.594813747264519410151706 0.01888248358622638192749754 0.7240687363217070959819921
1.589627494529038731485571 -0.01666666666666665602702935 0.7292549890576325299917926
1.594813747264519410151706 -0.01445084974710695094324286 0.7240687363217070959819921
1.580455203448845935554345 -0.001677915493719051411372623 0.7321331189425649421664843
1.576469165104133596244651 0.006294161195705361144803192 0.7298249960915719203313756
1.584441241793443255758689 -0.03962749452903867319886189 0.7240687363220372763095156
1.568974789517659562676499 -0.02463874335609106402955604 0.7223306205050539219314487
1.567774575126776648303917 -0.03962749452903867319886189 0.719452490620451579061978
1.575268950713250237782859 0.02463874335609108484623775 0.7269468662069695774619049
1.563788536782064086949617 0.03501124882705240748403952 0.7171443677694583351822644
1.584441241793443255758689 0.03962749452903868013775579 0.7240687363220371652872132
1.557494375586473633887863 0.005033746481068829270455467 0.7125281220675425686295057
1.56498875117294744541141 -0.01331083567931689616570257 0.7200224976540605670294326
1.557494375586474077977073 -0.03165541783970263201020146 0.7125281220675427906741106
1.625931263676815063945469 -0.01888248358756962341775676 0.7448137472643845402586749
1.620745010941830432926736 0.004078344274532991198256582 0.7396274945287691915396522
1.625931263676815063945469 0.02703917213663559887537602 0.7448137472643845402586749
1.615558758206215195230016 -0.03962749452876927064304269 0.7344412417929784275827387
1.61555875820621541727462 0.03962749452876927758193659 0.7344412417929785386050412
1.605186252735615326514562 0.01888248358595697937167834 0.7240687363215723149068026
1.610372505471230564211282 -0.004078344276145624835994141 0.7292549890573631898860185
1.605186252735615326514562 -0.02703917213824823598256053 0.7240687363215723149068026
1.142227506588727958813934 0.003365039532368978986154318 0.7611375329436409487016135
1.134455013177455784401104 -0.01666666666666664908813544 0.7689100263549124569806281
1.142227506588727958813934 -0.02996829380096435735403304 0.7611375329436409487016135
1.1181498343828812913614 -0.01594369092248219821339461 0.7844550131774559176278672
1.109617148999578972734525 -0.03373203743327143899755072 0.7922275065887279810183941
1.10961714899957919477913 0.001844655588307037800271937 0.7922275065887279810183941
1.12668251976618383203288 -0.03445501317745589681118545 0.7611375329436405046124037
1.110377340971609338993176 -0.03445501317745589681118545 0.7766825197661839652596427
1.110377340971609338993176 0.03445501317745591762786717 0.7766825197661839652596427
1.12668251976618383203288 0.03445501317745592456676107 0.7611375329436405046124037
1.189493194172149381770964 0.0004201428966486652318360062 0.7609269487244990637364594
1.182561704258560997260474 -0.01428312272382517046642736 0.7682785815347360491855966
1.174859302974586849899197 -0.001121679844123225303770264 0.7759809828187105296137815
1.174088391604201087048409 0.0004201428966486759654375138 0.776331751292447691525922
1.174438442373552327069319 -0.03136993228714049508631945 0.7601553196497270459275342
1.180178160315719759765329 -0.0476164560571585154802321 0.7516119148680694417308246
1.16631589819292935672479 -0.01820848940743855295942843 0.76855925788117585018
1.158963547678306449384422 -0.03375347622998198238164491 0.7600852275224294629651922
1.166736041089578179708042 0.018208489407438584184451 0.7678577209337014153334167
1.158192636307920242444425 0.03445501317745659070057584 0.7604359959961668469219376
1.188301422200728652001089 0.03136993228714050896410725 0.759735176753078444988887
1.173246670402131375254839 0.03375347622998199625943272 0.7589635476783064271799617
1.195232912114316814466974 -0.01666666666666666296592325 0.7523835439428414595397498
1.194041140142896084697099 0.009516034838142022403428832 0.7511917719714207297698749
1.194041140142896084697099 0.04284936817147534660055186 0.7511917719714207297698749
1.157772493411271863550382 0.003365039532369648589416045 0.7611375329436413927908234
1.165544986822543371829397 -0.01442330697842026006327831 0.7689100263549131231144429
1.157772493411271863550382 -0.03221165348921017912431353 0.7611375329436413927908234
1.641901736207500128728043 0.001410417244798830259389089 0.7595086810372988495032587
1.633803472414999902184718 -0.01666666666666666296592325 0.7676069448298992181634048
1.641901736207500128728043 -0.03192291608853450174398958 0.7595086810372988495032587
1.625300822152226487560256 -0.0003386338588802695532577192 0.7756394560111067315588684
1.624896435681952855389909 0.000470139081666636729668618 0.775573703399713432204976
1.624127161079635728313519 -0.02343096694526212997455872 0.7637546556090353266910142
1.635607575011433389988724 -0.03380347241499996602254186 0.7590385419557327262296553
1.621918672012929052428376 -0.007102934137475734772959601 0.7722573058718089633600812
1.621918672012928830383771 0.007102934137475739109768291 0.7722573058718087413154763
1.624127161079635506268914 0.02343096694526213344400567 0.7637546556090353266910142
1.635607575011433389988724 0.03380347241499997296143576 0.7590385419557327262296553
1.625931263676068994072921 -0.01888248358906251603284154 0.7551862527348688347572647
1.62074501094033784909243 0.004078344274532982524639202 0.7603725054697376695145294
1.625931263676068549983711 0.02703917213812848108211995 0.7551862527348688347572647
1.618536521873631173207286 0.0003386338588802749742685816 0.7688751557325110841389915
1.621514285542655642302634 -0.006294161196928827785301852 0.7721915532604157750284912
1.692110387657585812704042 0.002662325945283498286608737 0.7605519382876975154061938
1.6842207753151714477724 -0.0166666666666666664353702 0.7684415506302275655770018
1.692110387657585812704042 -0.03067100738804984239038731 0.7605519382876975154061938
1.6756523724410297138121 -0.0004701390816173136623368212 0.7761225115226469961626776
1.674973581909301900694231 0.0008874419818383287280119665 0.775913860072536487599848
1.676331162972663157972875 -0.03422077531517166149033216 0.760551938287719164755174
1.66687531811677702719976 -0.01802424773012230307944748 0.7678155962799604328239411
1.659664496305996550518103 -0.03422077531517165455143825 0.7601346353875626515872455
1.667762760098521201967969 0.01802424773012231348778833 0.7682328991801385953408499
1.658985705774268959444839 0.03380347241495065130356679 0.7599259839374521430244158
1.67633116297266338001748 0.03422077531517166149033216 0.760551938287719164755174
1.65809826379252478467663 0.001410417244749511637286199 0.7595086810372740915298095
1.666196527585049214081891 -0.01572638850353447192986778 0.7676069448298499242611115
1.65809826379252478467663 -0.03286319425181845332861741 0.7595086810372740915298095
1.743364260814751931505384 0.01018556488809711259302393 0.7668213040733453667030517
1.736728521629503640966163 -0.01666666666666665602702935 0.7734570432588003807694577
1.743364260814751931505384 -0.02314776844523622201243995 0.7668213040733451446584468
1.727951467305264943163934 -0.0008874419818109210728734881 0.7788389092870758867448444
1.72581015216627386976711 0.003395188296170461791922968 0.7775850361298959345646153
1.730092782443971133332639 -0.03672852162950377558070514 0.7668213040732680951805378
1.717920539823845960114568 -0.02094929694464803954234711 0.7696954237873798732039177
1.713426115777304747922472 -0.03672852162950378251959904 0.7643135577590274287729244
1.721315728119732657575014 0.02094929694464805342013491 0.7722031701015434901336221
1.711284800638313896570253 0.03422077531514427367609343 0.7630596846018474765926953
1.730092782443971355377244 0.03672852162950378945849295 0.7668213040732680951805378
1.707889612342427643199017 0.002662325945256104834518718 0.7605519382876837486406885
1.715779224684855552851559 -0.0148917827032214872273741 0.7684415506302000320459911
1.707889612342427643199017 -0.03244589135169909099865038 0.7605519382876837486406885
1.783213852761836637483839 -0.01015040805293665471253917 0.7933642608147737362855878
1.776560535158757447860012 0.009911446909944041094853162 0.7867285216295473171399522
1.783213852761836637483839 0.02997330187282472649390463 0.7933642608147737362855878
1.769924795973531361781284 -0.03672852162954734489552777 0.7800927824440703206576586
1.769924795973531361781284 0.03672852162954735877331558 0.7800927824440704316799611
1.756635739185226086078728 0.01018556488814069231618742 0.7668213040733669050297294
1.763271478370452394202061 -0.009876290074740000021757957 0.7734570432588441235566279
1.756635739185226086078728 -0.02993814503762069756387376 0.7668213040733669050297294
1.092151749210473532514243 0.001591378848045253441984004 0.809439629637571655962347
1.084303498420947198255249 -0.01666666666666666296592325 0.8179474386344962599793007
1.092151749210473532514243 -0.03174195448528807639299032 0.809439629637571655962347
1.068606996841886536131483 -0.01472633649145442709393894 0.8343034984209471982552486
1.060758746052352208266711 -0.03236316824573504113971012 0.8421517492104735325142428
1.060758746052352208266711 0.002910495262826194758087883 0.8421517492104736435365453
1.076455247631419087639415 -0.03430349842094727874641791 0.8100991878449682603857696
1.060758746052358425515649 -0.03430349842094727874641791 0.8264552476314191986617175
1.060758746052358425515649 0.03430349842094728568531181 0.8264552476314191986617175
1.076455247631419087639415 0.03430349842094727874641791 0.8100991878449682603857696
1.101685498782485339575032 -0.0475360065110953522449222 0.8013240109103931807510435
1.10132401091039300311536 -0.0475360065110953522449222 0.8016346177906088499298676
1.10132401091039300311536 0.0475360065110953522449222 0.8016346177906088499298676
1.101685498782485339575032 0.0475360065110953522449222 0.8013240109103931807510435
1.101954972488636830263431 -0.04681303076691090137018136 0.8012319967444524460020716
1.102825481360997006419211 -0.01594369092248221209118242 0.8024639934889048475952222
1.101954972488636608218826 0.01492564892194647371836957 0.8012319967444524460020716
1.102463993488904669959538 -0.01604545290623536624163847 0.8027746003691202947294414
1.10123199674445237938869 0.01482388693819332477208395 0.8018532105048837843597198
1.10123199674445237938869 -0.04691479275066404858174351 0.8018532105048837843597198
1.791961139584038464889204 0.001789546360665840440962171 0.809828406776626819052467
1.783922279168077107414092 -0.01666666666666666990481716 0.8178559127643718618116964
1.791961139584038464889204 -0.03154378697266749242977824 0.809828406776626819052467
1.775425182423239434115203 -0.0003275268230089380941047472 0.8257527092462489948232474
1.774966946094362896246821 0.0005889458347445634088523914 0.8256219997403811960978715
1.778587899315880571649018 -0.02058020661433756018365848 0.8152988425275756734222909
1.788583529705677133136987 -0.03392227916807790538689105 0.8092281065136663897874314
1.773468412449403786013136 -0.004241066770679828047685422 0.8237959392724134577434825
1.773468412449404008057741 0.004241066770679805496280235 0.8237959392724134577434825
1.778587899315880571649018 0.02058020661433754283642372 0.8152988425275757844445934
1.788583529705677133136987 0.03392227916807789844799714 0.8092281065136663897874314
1.783249149853480597371913 -0.01007981386964895004210163 0.806671036276870201398026
1.776631129342045145591555 0.009911446909944023747618402 0.813342072553740358387131
1.783249149853480597371913 0.02990270768953701141512624 0.8066710362768703124203284
1.771511642475568582000278 0.0003275268230089154884894509 0.8218391692985781427083225
1.773010176120527248144754 -0.003324594112926326436308067 0.8236652297665456590181066
1.842708654691986858153996 0.006251928151821302404034242 0.8135432734598346815602099
1.835417309383973405445545 -0.01666666666666666990481716 0.8208346187678972061263494
1.842708654691986858153996 -0.02708140518151203046670616 0.8135432734598345705379074
1.826781935295962000509462 -0.00060408150935574033042752 0.8273860168053177588376457
1.82543790651596404828183 0.00208397605063990369947402 0.8266460695346756759605
1.828114114442662696546904 -0.03541730938397325001432137 0.8135314238265866082500111
1.817406613937308623718536 -0.01935472422666231762100608 0.8186109957096251443786628
1.811447447775995645002922 -0.03541730938397325001432137 0.8120477480389565183571676
1.819478740354651069566216 0.01935472422666230027377132 0.8200828218640070499390049
1.81010341899599769277529 0.03393741484268904956556057 0.8113078007683143244577195
1.828114114442662696546904 0.03541730938397325001432137 0.8135314238265864972277086
1.80803129257865524692761 0.001804682035276991558525594 0.8098359746139325299196798
1.816062585157310893535509 -0.01546606614074540544945258 0.8178710484389830615015171
1.808031292578655468972215 -0.03273681431676778857964294 0.8098359746139325299196798
1.886810008012703043789315 -0.005898646679284827616662756 0.842708654691987857354718
1.879342021968369635942508 0.0128519960380241646258348 0.8354173093839756258915941
1.886810008012703043789315 0.03160263875533317334820538 0.842708654691987857354718
1.872050676660357737546292 -0.03541730938397566474939993 0.828125964075911769057825
1.872050676660357737546292 0.03541730938397565781050602 0.828125964075911769057825
1.857291345308012431303268 0.006251928151823710200218898 0.813543273459835902805537
1.864582690616024329699485 -0.01249871456548529331798125 0.8208346187678996486170035
1.857291345308012431303268 -0.03124935728279427948894664 0.813543273459835902805537
1.076172210392253081323588 0.0004040906092672957557535018 0.8742318802170141456286956
1.075889173153077083000539 -0.0009701650876192897997654652 0.8749190080654575263352513
1.06747484788519386711414 -0.01585848544814726091001233 0.8837374239426005750885906
1.059343559856486427506184 -0.03292924272408122993160973 0.8918687119713002431353743
1.059343559856486649550789 0.001212271827786710279989402 0.8918687119713002431353743
1.067757885124371641794028 -0.018040922363553250906687 0.866787720036752196151042
1.060192671574010647717046 -0.03430349842095261475583001 0.8582523413987852567430537
1.059343559856488425907628 -0.03373742394260063198752064 0.8756061359138952449043813
1.059343559856488425907628 0.03373742394260063892641455 0.8756061359138951338820789
1.068323959602716088923557 0.018040922363553250906687 0.8663836294274905869272629
1.059909634334834649393997 0.03373742394260063892641455 0.8589394692472285264273069
1.068606996841892087246606 -0.0166666666666666664353702 0.8656965015790472062207073
1.060758746052355094846575 -0.03042283807050180990949606 0.8578482507895236475192746
1.060758746052355094846575 0.002910495262831525129648691 0.8578482507895236475192746
1.891883079049952343098084 0.001686103379227651879318506 0.8598030243292754670747513
1.883766158099904330924801 -0.0166666666666666594964763 0.8677261307395658374019831
1.891883079049952343098084 -0.03164722995410568229246451 0.8598030243292754670747513
1.87533419303990944726479 -0.0001972634533230880910653626 0.8755314564932323850854345
1.875019148929962575778063 0.0004328247665709897924399274 0.8754136758366085624416542
1.880967025900706968144505 -0.0184502604364189283503439 0.8662076945483614398568761
1.889975743735631041886336 -0.03376615809990431149589796 0.8591763850229471310981921
1.874442396155033385696242 -0.001980857223075355860730795 0.8746396596083562124945843
1.874442396155033385696242 0.001980857223075387085753363 0.8746396596083562124945843
1.880967025900706968144505 0.01845026043641894916702562 0.8662076945483614398568761
1.889975743735631041886336 0.03376615809990431843479186 0.8591763850229471310981921
1.887176611536433457061435 -0.005165439631823779027819388 0.8576579488317426225307827
1.880075229015830906575957 0.01285199603802418891196346 0.8653158976634852672660259
1.887176611536433457061435 0.03086943170787214557604372 0.8576579488317427335530851
1.873550599270157324127695 0.0001972634533231196684536363 0.8737478627234801509260365
1.87412735204508629216491 -0.001350769003181278085645722 0.8745218789517323898508039
1.943508655944123031389381 0.0110519356647213080890868 0.8675432797205983037613919
1.937017311888246107187683 -0.0166666666666666594964763 0.8740346237764837766803794
1.943508655944123031389381 -0.0222813976686120247816536 0.8675432797205983037613919
1.928338868648264980976137 -0.0006902198132953014930723867 0.8790290884615604705132341
1.926151769464161001010893 0.003683978554912717851693715 0.8775322090907515804047989
1.930245359851826991715029 -0.03701731188824604334985935 0.8672626717400644391631204
1.918163546037475519767668 -0.02104086503487468187700848 0.8694804051570990122144167
1.913578693185160162215652 -0.03701731188824604334985935 0.8642053324914884537832904
1.921566916611845643458878 0.02104086503487469575479629 0.8722571364251412440182776
1.911391594001055960205804 0.03402355314662865171104755 0.8627084531206797857194601
1.930245359851826991715029 0.03701731188824605722764716 0.8672626717400643281408179
1.907988223426685836514594 0.001943498425951981469286811 0.8599317218526376649379017
1.915976446853371317757819 -0.01541338805400999274752838 0.8679835257862903441505864
1.907988223426685836514594 -0.0327702745339719728190353 0.8599317218526376649379017
1.982456720279378581395235 -0.01105193566474511369934763 0.89350865594412343106967
1.975965376223503877639587 0.009298709556835288436715814 0.8870173118882470619794844
1.982456720279378581395235 0.02964935477841568883805579 0.89350865594412343106967
1.969474032167627619571704 -0.03701731188824707030615713 0.8805259678323611449712871
1.969474032167627619571704 0.03701731188824707030615713 0.8805259678323611449712871
1.956491344055876435703567 0.01105193566472233157593763 0.8675432797205987478506017
1.962982688111752915816055 -0.009298709556858070560125817 0.8740346237764846648587991
1.956491344055876435703567 -0.02964935477843847269618927 0.8675432797205987478506017
1.075587979763487744833128 0.0003677783084408399547765578 0.924779798544952846839351
1.07556982361307462703337 -0.0004040906092673004178228435 0.9251657330038068893784953
1.067397826119999670879679 -0.01593990437688243277936095 0.933701111641774161853391
1.05924398477733805457035 -0.03297434935198994415683771 0.9418505558208871697445375
1.05924398477733805457035 0.001094540598225073827626241 0.9418505558208871697445375
1.067420379433954735759471 -0.01743853558437481049425699 0.9170162888246871091268986
1.059307247555660413951273 -0.03373742394260063892641455 0.908499066337133509563273
1.05924838194087977960578 -0.03370111164177417434340001 0.9255516674626541595571894
1.05924838194087977960578 0.03370111164177418128229391 0.9255516674626541595571894
1.067456691734780527269777 0.01743853558437481049425699 0.9166485105162532898148697
1.05928909140524751819612 0.03370111164177418128229391 0.9088850007959875521024173
1.06747484788519386711414 -0.01666666666666666990481716 0.9162625760573992472757254
1.059343559856486427506184 -0.03212106150554662475915535 0.9081312880286995792289417
1.059343559856486427506184 0.001212271827786712448393747 0.9081312880286995792289417
1.992498378016587468053444 0.004990268099520828171122844 0.9124918900829338541669244
1.984996756033174492017679 -0.01666666666666668031315801 0.9199935120663473853142023
1.992498378016587468053444 -0.02834306523381251163851147 0.9124918900829338541669244
1.97644909011628144845929 -0.0004286651671197881175237598 0.9268777552834004396231649
1.975403046182801158892062 0.001663422699840626326622806 0.9262603765170399627848496
1.978639076850880140767686 -0.02201406792142406032564139 0.915656388739128690446023
1.988814399461671600377599 -0.03499675603317398131508753 0.9108284673830937538951957
1.973775389488902520795932 -0.005776066421877170189991269 0.9242040546560217340044119
1.973775389488902520795932 0.005776066421877140699692177 0.9242040546560217340044119
1.978639076850880140767686 0.02201406792142403950895968 0.915656388739128690446023
1.988814399461671600377599 0.03499675603317396743729972 0.9108284673830937538951957
1.982456720279377471172211 -0.01105193566474812517930193 0.906491344055874948004714
1.975965376223501213104328 0.009298709556835278028374958 0.9129826881117498738049676
1.982456720279377471172211 0.02964935477841869337911618 0.906491344055874948004714
1.971101688861523815177179 0.000428665167119757217761844 0.9215303540286431394079614
1.972729345555422231228704 -0.003683978554916756721626658 0.9235866758896613681883991
2.037508109917064658134223 -0.004990268099522347788887799 0.9424983780165869795553135
2.030006487933651904143062 0.01333982126698502780615119 0.934996756033174003519548
2.037508109917064658134223 0.03166991063349240687063713 0.9424983780165869795553135
2.022504865950239150151901 -0.03499675603317405070402657 0.9274951340497603613499678