# geometry NO_DATA 660
#  x  y  z
1.24879352692296619053991 0.04240214000951414430318209 0.7936086130865481758078772
1.24758705384593238107982 -0.01666666666666666296592325 0.7949945969277232293848101
1.24879352692296619053991 0.009068806676180811432441686 0.7936086130865481758078772
1.240483387513513946487365 0.002459334001829314997333853 0.7975870538459324254887406
1.23458619425812887726579 -0.02846105317743630874760541 0.7987935269229661239265283
1.23458619425812887726579 0.03337972118109493874227311 0.7987935269229662349488308
1.246530063254872144895558 -0.04758705384593228671086251 0.7939376063366628821782456
1.239426396922453488258498 -0.04758705384593229364975642 0.7965300632548721893044785
1.239426396922453488258498 0.04758705384593229364975642 0.7965300632548721893044785
1.246530063254872366940162 0.04758705384593229364975642 0.793937606336663215245153
1.296163787850788118305445 0.03020534207578253263482004 0.7840415542249943303687587
1.292327575701575970157364 -0.0166666666666666525575824 0.7862664588886794092559285
1.29616378785078789626084 -0.003127991257550804572729053 0.7840415542249943303687587
1.277866868136441125258784 -0.01225474846360332693839812 0.7901216166000445406680797
1.267242372720517984419075 0.008994242368242963414637359 0.791751869647724815237666
1.291099815265891681548283 -0.04232757570157628240758996 0.7850386984529948986022418
1.265036413618986443907488 -0.03791565749851295158423525 0.7913653718310472706676251
1.274433148599225074093511 -0.04232757570157628240758996 0.7885073583476828185112595
1.276639107700756836649703 0.03791565749851297933981087 0.788893856164360252058998
1.263808653183301933253802 0.04558808179693668582999067 0.7901376113953629820585434
1.291099815265891681548283 0.04232757570157630322427167 0.7850386984529951206468468
1.252205959101531540511587 0.04040316796051852954452244 0.7926091270620503337340779
1.254411918203063303067779 0.01148175283024852055824283 0.7929956248787275452372114
1.252205959101531540511587 -0.01743966230002148842803678 0.7926091270620503337340779
1.343344843084766537799624 0.02095748677015468047768465 0.777612643685388738035158
1.336689686169532098602986 -0.01666666666666665602702935 0.7788235864698433985608972
1.343344843084766537799624 -0.0123758465631786489236088 0.777612643685388738035158
1.326301642829055493777446 -0.004109420014286465153152683 0.7804110628433418295202273
1.322568756403812884059334 0.003356352836198525299571394 0.7807875964323859330207256
1.33624739024050076530159 -0.03668968616953183214945966 0.7783812905408116211702918
1.316290133077622659385497 -0.02413243951715163954085952 0.7810051029456790416816148
1.319580723573833713757608 -0.03668968616953183214945966 0.780186273427603382835116
1.325859346900023938431445 0.02413243951715166729643514 0.7799687669143102741742268
1.315847837148591104039497 0.03744275334761983098363913 0.7805628070166475973579168
1.336247390240500543256985 0.03668968616953184602724747 0.7783812905408119542371992
1.306278623326190047038153 0.02532051972182606039418751 0.7815991430480162538430022
1.312557246652380271711991 0.004544433040872916662600289 0.7813816365347229231375081
1.306278623326190047038153 -0.01623165364008024094677474 0.7815991430480162538430022
1.383558961395905173574761 3.398232502130591094072556e-05 0.7747913630999387901709952
1.391779480697952653400762 0.0169262770542597563994125 0.7749211682937353629085919
1.391779480697952653400762 -0.01685831240421715657151758 0.7749211682937353629085919
1.375241441330904423878678 -0.01710652789711628735114246 0.7750158132683326872580665
1.383681891248176754061205 -0.03355896139590511251249438 0.7751399210147821294825121
1.366795293966285296249907 -0.03354756650121117067531173 0.7755958609332633812982749
1.366795293966285296249907 0.03354756650121118455309954 0.7755958609332633812982749
1.375241441330904423878678 0.01710652789711631163727112 0.7750158132683326872580665
1.383681891248176754061205 0.03355896139590512639028219 0.7751399210147822405048146
1.375118511478632843392234 -0.0002142331678778261222929197 0.7746672553534892369242471
1.374898580863408215080312 0.0002256280625718061233920403 0.7746729528008362564150957
1.366452433498789087451541 0.0009344672672895173656804069 0.7752530004657669504553041
1.358226216749394810179297 0.01781536710183401900353672 0.7758273506833506250046639
1.358226216749394810179297 -0.01594643256725499641524024 0.7758273506833506250046639
1.441861153896039526856043 0.01844286525483303240680044 0.7765817113587936137975021
1.433722307792078654031798 -0.01666666666666666296592325 0.7760825865234558529337505
1.441861153896039526856043 -0.01489046807850030219866344 0.7765817113587936137975021
1.425209970890797706033482 -0.0003580071358956568453382752 0.7755679780266931944154862
1.424836480093476964725596 0.0003889744587453616234823395 0.7755524943652682967609735
1.433898156811109103614399 -0.03372230779207868733848841 0.7762584355424864135386542
1.41668215032809130526914 -0.01741364826130768067580235 0.7753904819598311792816503
1.417231490144442718204232 -0.03372230779207868733848841 0.7755818146402866375410667
1.425385819909827933571478 0.01741364826130769455359015 0.7757438270457237550203899
1.416857999347121976896346 0.0336913404692290030517654 0.7755663309788616288642515
1.433898156811109103614399 0.03372230779207869427738231 0.7762584355424864135386542
1.408154329765385570638614 0.01705865612758362959144876 0.7752129858929690531255119
1.41630865953077078600586 3.398232502129926342615551e-05 0.7753749982984061706048351
1.408154329765385570638614 -0.01699069147754103670244774 0.7752129858929690531255119
1.494196152333480132057275 0.02649824693052058727227305 0.7823020945970402539870747
1.488392304666960486159155 -0.01666666666666665602702935 0.7824452757987405693285154
1.494196152333480132057275 -0.006835086402812749067914311 0.7823020945970402539870747
1.477947957577633086856395 -0.004222027511987848542862611 0.7821699850896211003714598
1.473307458154825555496359 0.005058971333627270555721722 0.7817515131788015381175683
1.487576857679894004604648 -0.03839230466696059301812127 0.7816298288116740877740085
1.467085138577486347344347 -0.0259476655122817846665928 0.7803341114875179673759931
1.470910191013227397149876 -0.03839230466696059301812127 0.7799371364112710480753776
1.477132510590566605301888 0.02594766551228179854438061 0.7813545381025545077946504
1.466269691590419643745236 0.03755536084532119095458214 0.7795186645004514858214861
1.487576857679894004604648 0.03839230466696060689590908 0.7816298288116740877740085
1.456222319577339385787695 0.02227591830807553255344722 0.7784982378854149454028288
1.462444639154678593939707 0.001387224129421009118437458 0.7799156395766982940997991
1.456222319577339385787695 -0.01950147004923351648497665 0.7784982378854149454028288
1.547312434014536330906253 0.0380044641405013067236851 0.7906920301259650063485651
1.54462486802907283944819 -0.01666666666666666990481716 0.7913146660847871771693463
1.547312434014536330906253 0.004671130807167973852944698 0.7906920301259648953262626
1.531799844506821717260436 -0.008983380377835761820826121 0.7907832248846574652034747
1.521662386970034086530745 0.01129153469573960025251758 0.7896291477257056934391244
1.543380275322732586573693 -0.04462486802907292271491713 0.790070073378446702250244
1.517820743825618601263727 -0.03694158174024201463092609 0.7875237620019011064442793
1.526713608656065979118921 -0.04462486802907292271491713 0.7874332464545125143118298
1.530555251800481020296729 0.03694158174024202156982 0.7895386321783171013066749
1.516576151119278126344625 0.04231671371116910856935434 0.7862791692955606315251771
1.543380275322732586573693 0.04462486802907292271491713 0.790070073378446702250244
1.503841643144415485267018 0.0304226559747290889457183 0.7842642991191446366627815
1.507683286288830970534036 0.004772608930226667628415882 0.7863696848429492236576266
1.503841643144415485267018 -0.02087743811427577450556825 0.7842642991191446366627815
1.582575305869334147956806 -0.01574749076398999220183228 0.798322796633324061055248
1.568803457984681237746827 0.01423143583599124559202487 0.7966455932666480777015749
1.582575305869334147956806 0.04421036243597248338588201 0.798322796633324061055248
1.567126254618005143370851 -0.04664559326664789729033345 0.7950125946890380657094965
1.567126254618005143370851 0.04664559326664791116812125 0.7950125946890382877541015
1.551677203366676138784896 0.04002518937807628823799533 0.7917023927447524034306525
1.553354406733352011116267 0.01004626277809505391358513 0.793335391322362193378126
1.551677203366676138784896 -0.01993266382188618041082506 0.7917023927447522924083501
1.149013030576103044921865 0.04292791397592296553931135 0.8439148833998200149864033
1.148026061152205956616967 -0.0166666666666666594964763 0.8454769875640645304670784
1.149013030576103044921865 0.009594580642589629199123991 0.8439148833998200149864033
1.145325957564286678547205 0.01126645949082810335695193 0.8480260611522059122080464
1.143612823400264488782341 -0.02009293499471105290399287 0.8490130305761028894906417
1.143612823400264488782341 0.04262585397636726308734367 0.8490130305761028894906417
1.147112805533769597232663 -0.04802606115220581922686804 0.8445637319456281710827739
1.144412701945850319162901 -0.04802606115220581922686804 0.8471128055337695528237418
1.144412701945850319162901 0.04802606115220584004354976 0.8471128055337695528237418
1.147112805533769597232663 0.04802606115220582616576195 0.8445637319456281710827739
1.189868402278053460818796 -0.009614788370838390357819847 0.8136575368698608645701142
1.194934201139026708204938 0.01358694724054816151126435 0.8121176771568017205282786
1.194934201139026708204938 -0.03281652398222492661439276 0.8121176771568017205282786
1.176558908278437565186891 -0.02585837974056566512803812 0.8200238393337176967534674
1.186220563676360528759801 -0.03986840227805322350862482 0.8165447672128882672382133
1.164958040472744205118261 -0.03598997746251244439497086 0.8290756335512696750811301
1.164958040472744205118261 0.03598997746251243745607695 0.8290756335512696750811301
1.176558908278437787231496 0.0258583797405656373724625 0.8200238393337176967534674
1.186220563676360750804406 0.03986840227805320269194311 0.8165447672128882672382133
1.180206746880130497245887 -0.00265664412917912887146521 0.8171366089906906271522757
1.175610890343180781059118 0.006535068944719855943414899 0.8190758213984610236479966
1.164010022537487643035092 0.01156851949038379019640832 0.8281276156160128909533569
1.15700501126874399915323 0.03089183028622956989073245 0.8352401974257942507406938
1.157005011268743777108625 -0.007754791305461972150681049 0.8352401974257942507406938
1.213941388754060435317683 -0.04701465522594838741810008 0.8043783884198122402509057
1.204378388419812262455366 -0.04701465522594839435699399 0.8079043275677264546175138
1.204378388419812262455366 0.04701465522594838741810008 0.8079043275677264546175138
1.213941388754060213273078 0.04701465522594838741810008 0.8043783884198122402509057
1.22061867305552196327767 -0.02788865455745240945484298 0.8014926723870258173931802
1.212548345108299674421914 0.002459334001829301119546045 0.8029853447740517013997419
1.22061867305552196327767 0.03280732256111102557172288 0.8014926723870259284154827
1.202985344774051501559597 -0.009614788370838383418925943 0.8065112839219656937217451
1.201492672387025839597641 0.02073320018844334103325089 0.808544550682854135104094
1.201492672387026061642246 -0.03996277693012009746276192 0.808544550682854135104094
1.599743083163069901075914 -0.01611573393084699684640881 0.8005323832048404364414296
1.599871541581534994946878 0.01696068256555593317669306 0.8006793911542848807272321
1.599871541581534994946878 -0.04919215042724992686951069 0.8006793911542848807272321
1.598653926166197170033456 -0.04974308316306959298902513 0.8004039247863750095035584
1.598653926166197170033456 0.04974308316306959298902513 0.8004039247863750095035584
1.598525467747732520251702 -0.01666666666666667684371106 0.8002569168369305652177559
1.597436310750859789209244 0.01397451899906083233604548 0.8001284584184653603244897
1.597436310750859789209244 0.04730785233239416520678589 0.8001284584184653603244897
1.645230193732956980312565 -0.006967001633615910183294773 0.8096196387835681296252233
1.647615096866478667791966 0.02159652543267480406807834 0.8120845681665721516040435
1.647615096866478667791966 -0.03553052869990661055688008 0.8120845681665721516040435
1.614817689023012592386408 -0.04487834089544646271052741 0.8029208286233884273030981
1.631308429270923454623698 -0.04523019373295737027840246 0.8075947347211582805215357
1.600535925489867228321827 -0.04964814716248909520768251 0.8008113918577769441142777
1.600535925489867228321827 0.0496481471624890813298947 0.8008113918577770551365802
1.614817689023012370341803 0.04487834089544645577163351 0.8029208286233884273030981
1.631308429270923454623698 0.04523019373295739109508418 0.8075947347211582805215357
1.628739453485046340119879 -0.0163148138291557553980482 0.8049457326857982764067856
1.614633616370656499228176 0.01189686039962403393821511 0.8027367559710324451671681
1.600351852837511135163595 -0.01611573393084700031585577 0.8006273192054209619783478
1.600175926418755611990719 0.01686574656497542498700959 0.8007268591545753100291449
1.600175926418755611990719 -0.04909721442666942214927417 0.8007268591545751990068425
1.685834610926565169108926 0.004146286363115884478214301 0.8245718655883257364180849
1.692917305463282673372305 0.02331423062301469367740836 0.8278956475664998038155318
1.692917305463282673372305 -0.01502165789678292819042671 0.8278956475664998038155318
1.67290295270418631901066 -0.0237475727339457459708072 0.8204016751109544092201986
1.683526100274543191304133 -0.03583461092656547303247905 0.8247646325295356906082134
1.663318980574237215819267 -0.037912961807380254897204 0.8181688130907625033927388
1.663318980574237215819267 0.03791296180738027571388571 0.8181688130907625033927388
1.67290295270418631901066 0.02374757273394574944025415 0.8204016751109542981978962
1.683526100274543191304133 0.03583461092656547997137295 0.8247646325295356906082134
1.675211463356208074770848 -0.004579628474046933302166185 0.8202089081697441219631628
1.671671010322568706740753 0.00250127759323214926903689 0.8191697327293369079725949
1.66208703819261960354936 -0.006967001633615910183294773 0.8169368707091450021451351
1.656043519096309868388062 0.01427929350709769736049726 0.8157431841293606433751506
1.656043519096309868388062 -0.02821329677432950558402247 0.8157431841293606433751506
1.735805228016613632746612 -0.011011899298095395929864 0.8468171273147089284094591
1.722676923036242868647605 0.01595568866465614521477079 0.8436342546294179900456811
1.735805228016613632746612 0.04292327662740769850246991 0.8468171273147089284094591
1.719494050350952152328432 -0.04363425462941820931472847 0.8405569371629335595486054
1.719494050350952152328432 0.04363425462941820931472847 0.8405569371629335595486054
1.703182872685290671910252 0.03111387432586742995965778 0.8342967470111581906877518
1.70636574537058161027403 0.004146286363115878406682135 0.8373740644776426211848275
1.703182872685290671910252 -0.02282130159963566273795266 0.8342967470111581906877518
1.108790457760212122551025 -0.03825583448161656852093415 0.897046292241828524538505
1.10882579051736307462761 -0.01082991666462590832353818 0.8940925844836572489171544
1.108790457760212122551025 0.01659600115236475881275169 0.8970462922418286355608075
1.126960560291637936103371 -0.03878303872228309329139861 0.8629939972128904956960582
1.115947704971061993362014 -0.03287562320594042408750113 0.8767069561213857165071772
1.113257599333223879511934 -0.04409258448365732663276617 0.8877651421491938865671045
1.115947704971061771317409 0.03287562320594041020971332 0.8767069561213858275294797
1.113257599333223879511934 0.04409258448365732663276617 0.8877651421491938865671045
1.126960560291637936103371 0.03878303872228310023029252 0.8629939972128904956960582
1.133541606796353296005009 -0.01084991256478833043797039 0.8556084806388583041680818
1.125183524356464292992541 0.01126645949082809641805802 0.8612169612777168525852289
1.133541606796353296005009 0.03338283154644453021298034 0.8556084806388584151903842
1.114170669035888350251184 0.01075925115032398682313186 0.8749299201862120733963479
1.111515896155201410522295 -0.00544970538894977256372254 0.8830343984558490788572271
1.749864672004697085938574 -0.01636408847650738102030843 0.8502866170903825571159018
1.749932336002348431946984 0.0168339168615229684000667 0.8503702421878106543218223
1.749932336002348431946984 -0.04956209381453773044068356 0.8503702421878107653441248
1.749576847001343304910392 -0.04986467200469700544740448 0.8502189530927311000851887
1.749576847001343304910392 0.04986467200469702626408619 0.8502189530927311000851887
1.749509183003691958901982 -0.0166666666666666594964763 0.8501353279953030028792682
1.7492213580003381778738 0.01582036066935317217274637 0.8500676639976514348262526
1.7492213580003381778738 0.04915369400268650157403982 0.8500676639976514348262526
1.792696128223192797435104 -0.001724790016340506772565822 0.8647748101019701039149368
1.79634806411159630989971 0.0243046715401857502114602 0.8685938125387295816182132
1.79634806411159630989971 -0.0277542515728667615881875 0.8685938125387295816182132
1.763375494140172250467913 -0.04246199566980572021046569 0.8540126992503125347155901
1.77992509453014524645198 -0.04269612822319292233519405 0.8613665712987819134127676
1.750360763361908933433142 -0.0497658674466128006508292 0.8505120524569886875099201
1.750360763361908933433142 0.04976586744661282146751091 0.8505120524569886875099201
1.763375494140172250467913 0.04246199566980574102714741 0.8540126992503125347155901
1.77992509453014524645198 0.04269612822319292233519405 0.8613665712987820244350701
1.776146527833219801451037 -0.01643253411327946778008879 0.8574209380535006141954568
1.763248863331650095886971 0.009362794889859594668624077 0.8538860684417907132015557
1.750234132553387000896805 -0.01636408847650738102030843 0.8503854216484667549735832
1.7501170662766933894261 0.01673511230343875319515057 0.8504196444668529197841167
1.7501170662766933894261 -0.04946328925645351870521438 0.8504196444668529197841167
1.848994208052767262984162 0.04609846525963257057867395 0.8971042572068654852301961
1.847988416105534215105877 -0.01666666666666664561868849 0.8970434406825830153664469
1.848994208052767262984162 0.01276513192629923770793354 0.8971042572068654852301961
1.836321351294364134787429 -0.006667462955673298177772246 0.8929888142500370662446585
1.825660078430426880302662 0.01465508277220045098288015 0.8889950043417733649420143
1.847306708323062540699766 -0.04798841610553376130221537 0.8963617329001118960718486
1.820660476574930131121732 -0.03798921239454040865712869 0.8847988778557663858137516
1.830640041656395711200389 -0.04798841610553376130221537 0.8881109799815588567994951
1.835639643511892682425923 0.03798921239454043641270431 0.8923071064675657249054552
1.819978768792459122849436 0.04000079628900665706936479 0.8841171700732953775414558
1.847306708323062984788976 0.04798841610553378211889708 0.8963617329001118960718486
1.804999601855496571545245 0.02160933960599948494563094 0.8766089414614960384497522
1.809999203710993320726175 -0.00172479001634050330311887 0.8808050679475029065557123
1.804999601855496571545245 -0.02505891963868048938346433 0.8766089414614960384497522
1.853368981958344985372378 -0.04622753143799221420273682 0.8995965133963370607972365
1.85228972088466670165019 -0.01370117131198441036421531 0.8991930267926743214346175
1.853368981958344985372378 0.01882518881402338306596533 0.8995965133963370607972365
1.851886234281004073309873 -0.04919302679267445466138042 0.8986515379733864827827006
1.851886234281004073309873 0.04919302679267448241695604 0.8986515379733864827827006
1.850403486603663161247368 0.0473030759467732569989451 0.8977065625504359047681646
1.850806973207325789587685 0.0147767158207654670382114 0.8982480513697237434200815
1.850403486603663161247368 -0.0177496443052423368003101 0.8977065625504359047681646
1.103849134807218135279072 -0.04542439028250051802348963 0.9492735250897184062779388
1.103014279769030991928958 -0.01354400676972986397594845 0.9485470501794370790094035
1.103849134807218135279072 0.01833637674304079007159274 0.9492735250897184062779388
1.10688008955733385718645 -0.04747496505767782870588434 0.9039617145563134670283034
1.104688189466594971932523 -0.04602201523711516029102597 0.9199019063126987472145402
1.104987001943902313882973 -0.04854705017943732048291139 0.9353060555082044480457171
1.104688189466594971932523 0.04602201523711514641323816 0.9199019063126987472145402
1.104987001943902313882973 0.04854705017943732048291139 0.9353060555082044480457171
1.10688008955733385718645 0.04747496505767784258367215 0.9039617145563135780506059
1.107099267473201864575572 -0.04163821505563706365515841 0.9012625174711610398503581
1.105443409943342558676704 -0.01082991666462590138464428 0.9025250349423219464739532
1.107099267473201864575572 0.01997838172638526782476376 0.9012625174711610398503581
1.103251509852603451378172 0.01521371684610398414272403 0.9184652266987073376824924
1.102715467291723649978508 -0.01414163172434449930459088 0.9331429009839316002228315
1.892014947192205198689408 0.000834375439122469336750143 0.9167355738606890458441967
1.896007473596102332891178 0.0261826559646610446119297 0.9214935685096863338117146
1.896007473596102332891178 -0.02451390508641609899953551 0.9214935685096863338117146
1.88082355460677708158812 -0.04201494719220523477165585 0.9127430474567918006201239
1.88082355460677708158812 0.04201494719220523477165585 0.9127430474567918006201239
1.87683102820287950329714 -0.01666666666666666990481716 0.9079850528077946236749085
1.865639635617451386195853 -0.02168622411977919051118135 0.9039925264038972674285333
1.865639635617451386195853 0.011647109213554145829006 0.9039925264038972674285333
1.926117049283232462997262 -0.02035800697938228154271201 0.9464750562626141894284615
1.918345940247694780822485 0.005925438879179543288922005 0.9429501125252285342881464
1.926117049283232240952657 0.03220888473774136812055602 0.9464750562626141894284615
1.914820996510308903637565 -0.04295011252522849126700422 0.9385589106488421151652801
1.914820996510308903637565 0.04295011252522849126700422 0.9385589106488421151652801
1.903524943737386010411683 0.02711782129768429763783111 0.9306427650350699298797963
1.907049887474771665551998 0.0008343754391224716135747053 0.9350339669114564600249651
1.903524943737385566322473 -0.02544907041943935202543692 0.9306427650350699298797963
1.118736757323985253620435 -0.02780335816499397011414274 0.9965401154889792501023749
1.114558205428523907087879 -0.001389793853702008669115386 0.9930802309779585002047497
1.118736757323985253620435 0.02502377045758994583701806 0.9965401154889792501023749
1.105082556604164878422125 -0.04788310955522474821055567 0.9535212266556963855990148
1.1069811111667171577011 -0.04096334053318337331539567 0.9667280088113422431561617
1.113561102350812070937991 -0.04308023097795861400260975 0.9823362302556214453730377
1.1069811111667171577011 0.04096334053318338719318348 0.9667280088113423541784641
1.113561102350812070937991 0.04308023097795863481929146 0.9823362302556214453730377
1.105082556604164878422125 0.04788310955522476208834348 0.9535212266556963855990148
1.104181105119324435293038 -0.04476044965828795962892173 0.951058445222387360828975
1.103678220393243591956889 -0.01354400676972986397594845 0.9521168904447750991337784
1.104181105119324435293038 0.01767243611882822473813093 0.951058445222387360828975
1.105576774955795871235864 0.009746897644625298479104103 0.9653236726004209566909253
1.107978214244428993850988 -0.01454977622189141187036832 0.9774720095336794090101762
1.946830217928625650358754 -0.008514827054906151659885438 0.9572457018772544401485902
1.948415108964312913997219 0.02164872420705277883401507 0.9597367306474474668576136
1.948415108964312913997219 -0.03867837831686508215378595 0.9597367306474474668576136
1.943044495070569199768329 -0.04683021792862560039871767 0.9556608108415673985547301
1.943044495070569199768329 0.04683021792862560733761157 0.9556608108415672875324276
1.941459604034881936129864 -0.01666666666666666990481716 0.9531697820713743718457067
1.937673881176825929628649 0.002755656807805139611039502 0.9515848910356871082072416
1.937673881176825929628649 0.03608899014113847725226947 0.9515848910356871082072416
1.986797815186945204146696 -0.006736508935457211251496279 0.9935343241224023902447016
1.97809742140986877245723 0.01366547264268113195950782 0.9870686482448048915117056
1.986797815186945204146696 0.03406745422081946389480933 0.9935343241224023902447016
1.971631745532271384746537 -0.03706864824480499837067171 0.9809435772616159621151155
1.971631745532271384746537 0.03706864824480500530956562 0.9809435772616159621151155
1.956465675877597565346377 0.01188715452323219068375693 0.968352830400829422963227
1.962931351755194953057071 -0.008514827054906142986268058 0.9744779013840183523598171
1.956465675877597565346377 -0.02891680863304448359518695 0.9683528304008295339855295
1.141111887531063517897678 0.008731920192271019204310889 1.021587405898405354065517
1.145555943765531825562221 0.03317714105666771245983782 1.029842643093405785137406
1.145555943765531825562221 -0.01571330067212567405121604 1.029842643093405785137406
1.13652771350534731453763 -0.04111188753106335275200323 1.017143349663937046400974
1.13652771350534731453763 0.04111188753106335969089713 1.017143349663937046400974
1.132083657270879006873088 -0.01666666666666665602702935 1.00888811246893639328448
1.12749948324516280351304 -0.01027790632263865001905234 1.004444056234468085619937
1.127499483245163025557645 0.02305542701069468458641154 1.004444056234468307664542
1.157708936531986587681331 -0.04107709132705258947559912 1.048786027859038849641138
1.155675426477434708516512 -0.01017170227564107194695442 1.04757205571807787691796
1.157708936531986587681331 0.02073368677577044211224333 1.048786027859038849641138
1.154461454336473735793334 -0.04757205571807818222929143 1.044818654621840980922798
1.154461454336473735793334 0.04757205571807818222929143 1.044818654621840980922798
1.151213972140960883905336 0.03963730924368252805933821 1.040851281384643112204458
1.152427944281921856628514 0.008731920192271015734863937 1.043604682480880230244225
1.151213972140961105949941 -0.02217346885914050005905729 1.040851281384643112204458
1.998938650465382993459684 -0.01382416738322292046325934 1.002482599176339306268346
1.99946932523269182979675 0.01844781641549288198067558 1.003373174050752325570102
1.99946932523269182979675 -0.04609615118193872290719426 1.003373174050752325570102
1.997968728220698597652927 -0.04893865046538248275709293 1.001951924409030469931281
1.997968728220698597652927 0.04893865046538246194041122 1.001951924409030469931281
1.997438053453389983360466 -0.01666666666666667684371106 1.001061349534617450629526
1.996468131208706253687524 0.01260412310806358765491453 1.00053067476730861429246
1.996468131208706253687524 0.04593745644139692052565493 1.00053067476730861429246
2.035350087434631305427502 -0.007073829585975960690391595 1.042423917020607326833215
2.029039168186404396010403 0.0111073377885720636637501 1.034847834041214609257509
2.035350087434631305427502 0.02928850516312008628316832 1.042423917020607326833215
2.021463085207011900479301 -0.03484783404121469252423537 1.027178499995662352972658
2.021463085207011900479301 0.03484783404121469252423537 1.027178499995662352972658
2.007576082979392495531101 0.004356999991325112564499733 1.011933082970717601156707
2.015152165958784991062203 -0.01382416738322291352436544 1.019602417016269857441557
2.007576082979392495531101 -0.03200533475777093961323061 1.011933082970717601156707
1.186930368003038305246832 0.01096944122191690837442302 1.076887685941253280930141
1.193465184001519130418956 0.03123314255828855967589419 1.084170923887064263979596
1.193465184001519130418956 -0.009294260114454742927048159 1.084170923887064263979596
1.180045999530365374852181 -0.03693036800303831773684138 1.070352869942772455758018
1.180045999530365152807576 0.03693036800303831079794747 1.070352869942772455758018
1.173511183531884549680058 -0.01666666666666666296592325 1.063069631996961472708563
1.166626815059211397240801 -0.02324133427260275525094713 1.056534815998480647536439
1.166626815059211397240801 0.01009199906073057241562285 1.056534815998480647536439
1.207288592345390876303668 -0.04165620272035473747873624 1.098944795065745383411127
1.205227103574076918945934 -0.0104332792555300816333963 1.097889590131491122093621
1.207288592345390876303668 0.02078964420929458808973145 1.098944795065745383411127
1.204171898639822657628429 -0.04788959013149134136266838 1.096096182343370362133328
1.204171898639822657628429 0.04788959013149133442377448 1.096096182343370806222538
1.201055204934254216908585 0.04219236468674156942393338 1.093247569620995784944739
1.20211040986850847822609 0.01096944122191689970080564 1.095040977409116322860427
1.201055204934254216908585 -0.02025348224290775961398126 1.093247569620995562900134
2.047858639033611982682714 -0.008963832854229303315207744 1.055992777872606813716061
2.04892931951680612456812 0.0222281395127158776237053 1.058773514295631379411589
2.04892931951680612456812 -0.04015580522117448425412078 1.058773514295631379411589
2.046149655077758922061548 -0.04785863903361184390483629 1.05492209738941289387526
2.046149655077758922061548 0.0478586390336118508437302 1.05492209738941289387526
2.045078974594564336086933 -0.0166666666666666594964763 1.052141360966388106135128
2.043369990638711275465766 0.008965976822183918670816638 1.051070680483193964249722
2.043369990638711275465766 0.04229931015551724460266314 1.051070680483193964249722
2.070330196133805422675778 -0.02556758539518504472209948 1.095897781528990755361974