# geometry NO_DATA 696
#  x  y  z
1.248592802495159137521341 0.04691657574104036304563081 0.8483237732458813740166192
1.247185604990318275042682 -0.01666666666666667337426411 0.8470510903656791601434861
1.248592802495159137521341 0.01358324240770702670544345 0.8483237732458813740166192
1.246668333356161451064281 0.0156321233983537470624281 0.8471856049903180307936168
1.247558259226846155698354 -0.01488681492529755553966275 0.8485928024951590042945782
1.247558259226846155698354 0.04615106172200506007285981 0.8485928024951588932722757
1.248498878793389277319648 -0.04718560499031797250690801 0.8483643641687504954873589
1.247981607159232897430456 -0.04718560499031797250690801 0.8484988787933893661374896
1.247981607159232897430456 0.04718560499031797250690801 0.8484988787933891440928846
1.248498878793389277319648 0.04718560499031797250690801 0.8483643641687503844650564
1.283857168083266664382336 0.01561899716679980738842648 0.8322856638334663603728814
1.291928584041633243373326 0.03280949858339989727573638 0.8403570797918331614084764
1.291928584041633243373326 -0.00157150424980026276640388 0.8403570797918331614084764
1.283004595448972828819478 -0.01758427158948482060818463 0.8324807606990396458002124
1.29153481386874857683722 -0.03385716808326676152685053 0.8404871443688818333228596
1.274409344740673022400301 -0.03372710350621807573467947 0.8409414967827008036138636
1.274409344740673022400301 0.03372710350621805491799776 0.8409414967827008036138636
1.283004595448972828819478 0.01758427158948478591371511 0.8324807606990394237556075
1.291534813868748354792615 0.03385716808326673377127491 0.8404871443688818333228596
1.275326949663490916364594 -0.0003937701728847522422878591 0.8242792801636241728502341
1.274868147202081747337843 0.0005238347499333842038210518 0.824344312452148564318577
1.266272896493782162963271 0.0163976374173890430963052 0.8328050485358098331545307
1.258136448246891081481635 0.03345807425694044545672057 0.8412007523309467105221415
1.258136448246891081481635 -0.0006627994221623417000349709 0.8412007523309467105221415
1.333964605792983038057287 0.01540412174736745590242215 0.8320707884140340349077292
1.341982302896491674459867 0.03270206087368372760426638 0.8400884855175425602880068
1.341982302896491674459867 -0.001893817378948803005836443 0.8400884855175425602880068
1.332863217438258196523293 -0.0178217738762496899496135 0.8322319449786084177844714
1.341458468146558224987075 -0.03396460579298293813721443 0.8401959232272587785317342
1.324214247875100003426496 -0.03385716808326674764906272 0.8403570797918331614084764
1.324214247875100003426496 0.03385716808326674071016882 0.8403570797918331614084764
1.332863217438258196523293 0.01782177387624966913293179 0.8322319449786084177844714
1.341458468146558224987075 0.03396460579298293813721443 0.8401959232272587785317342
1.325369355084683009593505 -0.0005238347499334271382270822 0.8241068101653836741604664
1.324791801479891395487698 0.0006312724596495845582125317 0.8241605290202418387934813
1.316142831916733202390901 0.01561899716679981432732038 0.8322856638334665824174863
1.308071415958366623399911 0.03280949858339990421463028 0.8403570797918331614084764
1.308071415958366623399911 -0.001571504249800259513797362 0.8403570797918331614084764
1.383998643472875489379703 0.01533604638758191175684775 0.8320027130542484439246209
1.391999321736437922325536 0.03266802319379094599050006 0.8400033913178106548258484
1.391999321736437922325536 -0.001995930418627110333740227 0.8400033913178106548258484
1.382719079713630394579127 -0.01796324926585863776540286 0.8320537695740877204286789
1.391368049276788143586714 -0.03399864347287570587319294 0.8400374289977033948062513
1.374053091310525775980977 -0.03396460579298293813721443 0.8400884855175425602880068
1.374053091310525775980977 0.03396460579298293813721443 0.8400884855175425602880068
1.382719079713630394579127 0.0179632492658586204181681 0.8320537695740877204286789
1.391368049276788143586714 0.03399864347287569199540513 0.8400374289977033948062513
1.375349673909717740372116 -0.0006312724596496171926979235 0.8240190536306327695470486
1.374701382610121758176547 0.0006653101395423436205736611 0.8240360724705790840260988
1.366035394207017361623002 0.0154041217473674593718691 0.8320707884140340349077292
1.358017697103508725220422 0.03270206087368373454316028 0.8400884855175425602880068
1.358017697103508725220422 -0.00189381737894880235531514 0.8400884855175425602880068
1.433948774693680316971722 0.01543578394597227426698893 0.8321024506126390996030295
1.441974387346840247303703 0.0327178919729861350518263 0.8401280632657988078904054
1.441974387346840247303703 -0.001846324081041583482082347 0.8401280632657985858458005
1.432643088804193221008632 -0.01794741816655622337894904 0.8320276474438461633553743
1.441309077207298061651386 -0.03394877469368052375076061 0.8400781944866034800512011
1.42400203479068654388584 -0.03399864347287569199540513 0.8400033913178106548258484
1.42400203479068654388584 0.03399864347287569199540513 0.8400033913178106548258484
1.432643088804193443053236 0.01794741816655621644005514 0.8320276474438462743776768
1.441309077207298061651386 0.03394877469368053068965452 0.8400781944866035910735036
1.425282786290575920418178 -0.0006653101395423674730214558 0.8240519035698816718849002
1.424642410540631232152009 0.0006154413603471850253284758 0.8240269691802840634764493
1.416001356527124110940008 0.01533604638758191696101818 0.8320027130542486659692258
1.408000678263562122083385 0.03266802319379094599050006 0.8400033913178106548258484
1.408000678263562122083385 -0.001995930418627108165335882 0.8400033913178106548258484
1.483851592966728194511461 0.01563014739987654208586143 0.8322968140665432112967892
1.49192579648336409725573 0.03281507369993827416543297 0.8403710175831788919964538
1.49192579648336409725573 -0.001554778900185176115922303 0.8403710175831788919964538
1.482669301109510229252919 -0.0178003676604089194901448 0.8321510414761150720153182
1.49131035512301690637571 -0.03385159296672840545383565 0.840273835856226836149574
1.474076837959479080453207 -0.03394877469368051681186671 0.8401280632657985858458005
1.474076837959479080453207 0.03394877469368051681186671 0.8401280632657988078904054
1.482669301109510229252919 0.01780036766040889520401613 0.8321510414761150720153182
1.49131035512301690637571 0.03385159296672838463715394 0.8402738358562269471718764
1.47521053895322151738867 -0.0006154413603472012883610631 0.824174019686431336140231
1.474643688456350520965543 0.0005182596333950377802055054 0.8241254288229553637279423
1.466051225306319594210436 0.01543578394597226732809503 0.8321024506126388775584246
1.45802561265315988592306 0.03271789197298612117403849 0.8401280632657988078904054
1.45802561265315988592306 -0.001846324081041573941103229 0.8401280632657985858458005
1.533749272340792169089241 0.01583717107997330633684108 0.8325026465325279234619416
1.541874636170395884704476 0.03291977675409867021283361 0.8406292015762439895354419
1.541874636170395884704476 -0.001245434594152030867778014 0.8406292015762439895354419
1.532765388319889732215984 -0.01760086530752042605074692 0.8323494493124310444898128
1.541357851469920881015696 -0.03374927234079202337246883 0.8405271646691152565011862
1.524224085482826840376447 -0.03385159296672839851494174 0.8403724925160986902739069
1.524224085482827284465657 0.03385159296672838463715394 0.8403724925160986902739069
1.532765388319889954260589 0.01760086530752038788683045 0.8323494493124310444898128
1.541357851469920436926486 0.03374927234079200949468103 0.8405271646691151454788837
1.525156809190761464378738 -0.0005182596333950871114043535 0.8243249311758438224728707
1.524689709870334475283471 0.0004159390074586525546523896 0.8242737708628755655126952
1.516148407033271583443934 0.01563014739987653514696753 0.8322968140665432112967892
1.508074203516635680699665 0.03281507369993827416543297 0.8403710175831791140410587
1.508074203516635680699665 -0.001554778900185180019050124 0.8403710175831788919964538
1.57773325229723226925671 0.004817673427390943563519699 0.8270844211301586756945881
1.579979881219159665306506 -0.0003244155835365672012511606 0.8296554656356224244362352
1.57633247213137872577704 -0.00697040259202433027524437 0.8381510067607240710430005
1.570438434121671278376198 -0.02845474268608196022345425 0.8440755033803620799304213
1.570438434121671278376198 0.01451393750203330834658288 0.8440755033803620799304213
1.577365457953985528050111 -0.005553262113884299341903805 0.8270410423704486202467479
1.568869916828883770421044 -0.02189551319701441012277598 0.8351218357022036631320816
1.565590302084350016187386 -0.03815100676072430418983572 0.8436607555870154762089896
1.568869916828883770421044 0.02189551319701438236720037 0.8351218357022036631320816
1.565590302084350016187386 0.03815100676072429031204791 0.8436607555870152541643847
1.577365457953985528050111 0.00555326211388425423909343 0.8270410423704486202467479
1.575118829032058354044921 -0.0004111731029567884145026202 0.8244699978649849825274032
1.574751034688811834882927 0.0003244155835365226405418715 0.8244266191052747050349581
1.566255493563710077253859 0.01583717107997330980628803 0.8325074124370296368979893
1.55812774678185506083139 0.0329150108495967486099687 0.8406315845284947352311633
1.55812774678185506083139 -0.00124066868965010818071093 0.8406315845284947352311633
1.184782881554844014004857 0.01376757022364564000960208 0.880434236890312194034891
1.19239144077742209582027 0.03188378511182279190228073 0.888042796112890386872607
1.19239144077742209582027 -0.004348644664531520556693955 0.888042796112890386872607
1.186907549389403238038199 -0.005710940732716059987927881 0.8926184901221192458109499
1.1795260395115230167562 0.01285937284485594300775801 0.8852369802442386914620442
1.186907549389403460082804 0.03142968642242793819718827 0.8926184901221192458109499
1.183485433760563143579247 -0.0184979973438608828739671 0.882035885539052544324079
1.192009658321738330144512 -0.03478288155484382526694276 0.8891105618787170650207941
1.181808836194355283311097 -0.01895209603325572270127175 0.8837124831052604045922294
1.188429413844624971119401 -0.03523698024423866509424741 0.8922367076664354801351919
1.181808836194355283311097 0.01895209603325574004850651 0.8837124831052604045922294
1.188429413844624971119401 0.03523698024423867203314131 0.8922367076664357021797969
1.183485433760563143579247 0.01849799734386089675175491 0.882035885539052544324079
1.192009658321738330144512 0.03478288155484383220583666 0.8891105618787170650207941
1.176258656993669049484197 -0.0003817824556837217113598737 0.873359560550647673338176
1.175342991655071944734345 0.00144954822151049955193669 0.8738934434335610124122695
1.17366639408886386242159 0.001903646910905340897124383 0.8755700409997690947250248
1.172905461861252884858686 -0.0003817824556837217113598737 0.8767127556830636159190817
1.2389750727002444286029 -0.03478288155484386690030618 0.87282567766773422324178
1.22282567766773420103732 -0.03478288155484386690030618 0.8880427961128902758503045
1.22282567766773420103732 0.03478288155484388771698789 0.8880427961128902758503045
1.2389750727002444286029 0.03478288155484388771698789 0.8728256776677341122194775
1.239907349287598714582259 -0.002484091489823455570912225 0.857608559222578059610953
1.231366513477666568832092 0.01563212339835377134855676 0.865217118445156030404064
1.239907349287598714582259 0.03374833828653097528293969 0.857608559222578059610953
1.215217118445156341266511 0.01376757022364565215266641 0.880434236890312194034891
1.207608559222578259451097 0.03188378511182286129121977 0.888042796112890386872607
1.207608559222578259451097 -0.004348644664531574333121711 0.8880427961128902758503045
1.58819158347227018523995 0.006950166388793009748792162 0.8736168330554596739290218
1.594095791736135137028896 0.02847508319439650409377052 0.879521041319324625717968
1.594095791736135137028896 -0.01457475041681048980035662 0.879521041319324625717968
1.58227725710678956971833 -0.0381915834722701616477103 0.8677126247915947221400756
1.582277257106789791762935 0.0381915834722701685866042 0.8677126247915947221400756
1.576373048842924839973989 -0.01666666666666666296592325 0.8618084165277297703511294
1.570458722477444002407765 -0.01877881911975415318849514 0.8559042082638648185621832
1.570458722477444002407765 0.01455451421357918141696874 0.8559042082638648185621832
1.634478848263306360877323 0.01437563680672061285081842 0.881042303473387300449815
1.642239424131653358074345 0.0321878184033603104152732 0.8888028793417339645799302
1.642239424131653358074345 -0.003436544789919086882040711 0.8888028793417339645799302
1.62661871558991455444243 -0.02267043173557645174831521 0.8754732006599414972924933
1.637381173992716210108256 -0.03447884826330636226510151 0.8850901441327702068306849
1.617712624791594722140076 -0.03819158347227008531987735 0.879521041319324625717968
1.617712624791594722140076 0.03819158347227008531987735 0.879521041319324625717968
1.62661871558991455444243 0.02267043173557645174831521 0.8754732006599416083147958
1.637381173992716654197466 0.03447884826330636920399542 0.8850901441327703178529873
1.623716389860504705211497 -0.004858250138936752449136947 0.8714253600005585909116235
1.620714507326049602653484 0.001145514929973031562765451 0.869568992396076767548152
1.611808416527729770351129 0.00695016638879300627934521 0.8736168330554596739290218
1.605904208263864818562183 0.02847508319439642776593757 0.879521041319324625717968
1.605904208263864818562183 -0.01457475041681041694197063 0.879521041319324625717968
1.683867188913327206378767 0.01559895550667858912796682 0.8822656221733449211086509
1.691933594456663358940318 0.03279947775333930115593262 0.8903320277166814067371092
1.691933594456663358940318 -0.001601566739982117695828556 0.8903320277166814067371092
1.681881988728370913577237 -0.018346037176633734483433 0.8813481331483764558143434
1.690788079526690523834986 -0.0338671889133273645855482 0.8897203683667023188519352
1.673281727605040458684016 -0.03447884826330636226510151 0.8888028793417338535576278
1.673281727605040458684016 0.03447884826330636920399542 0.8888028793417339645799302
1.681881988728370913577237 0.01834603717663374142232691 0.8813481331483764558143434
1.690788079526690523834986 0.033867188913327378463336 0.8897203683667023188519352
1.674961098115007374076413 -0.001145514929973026358595023 0.8738933869550190580710591
1.674121412860023916380214 0.0005338555799940445083934248 0.8735875572800295696396233
1.665521151736693683531598 0.01437563680672061285081842 0.8810423034733869673829076
1.657760575868346908379181 0.0321878184033603104152732 0.8888028793417339645799302
1.657760575868346908379181 -0.003436544789919086882040711 0.8888028793417338535576278
1.726897568464816012934193 0.003133883382777631707721833 0.8762363149179615007255961
1.728299196769491175018629 -0.0003306267734272891616227608 0.8779685699960639855277122
1.72293443343222207886356 -0.01039889990111129633443277 0.8864672167161109506139383
1.716168041790277598579451 -0.03019944995055559577856741 0.8932336083580554308980481
1.716168041790277598579451 0.009401650148333010048595781 0.8932336083580554308980481
1.726465327288105644498728 -0.003998365736198951012059233 0.8761347005146780109186011
1.717966680568058679412502 -0.02033440562943833462838938 0.8840994916547311177623669
1.713034158407499951692898 -0.03646721671611096587950485 0.892699752778061350610983
1.717966680568058457367897 0.02033440562943832768949548 0.8840994916547311177623669
1.713034158407499951692898 0.03646721671611097281839875 0.892699752778061350610983
1.726465327288105422454123 0.003998365736198940603718377 0.8761347005146780109186011
1.725063698983430260369687 -0.000533855579994030196924748 0.8744024454365756371387874
1.724631457806719669889617 0.0003306267734272793495930998 0.8743008310332923693763973
1.716132811086672704803391 0.01559895550667858565851986 0.8822656221733452541755582
1.708066405543336330197235 0.03279947775333928033925091 0.8903320277166815177594117
1.708066405543336330197235 -0.0016015667399821072874877 0.8903320277166815177594117
1.125147337088121979320476 0.0001505388100391953350252333 0.9250032017219173008371058
1.125186572651590388716158 -7.206768310233829842939568e-05 0.92511450496848790514548
1.125145313964546645024711 -1.044969098481608870830802e-05 0.9251557636555315378146247
1.125064819714034713982187 0.0001505388100391954163403962 0.9250857190960043441307903
1.125106446587181174834313 -0.0002323198119205872771812771 0.9250343789040789133082399
1.125065187900137653187471 -0.0001707018198030651047296391 0.9250756375911223239327796
1.125065187900137431142866 0.0001707018198030531514006874 0.9250756375911223239327796
1.125106446587181174834313 0.0002323198119205752425371625 0.9250343789040789133082399
1.125067211023712765438631 -9.713318779053670831702405e-06 0.9249230756575080869552608
1.125026320522771960952468 7.206768310232625023275393e-05 0.9249542528396696994263948
1.124985061835728439305626 1.044969098480411843869742e-05 0.924995511526713221073237
1.124984693649625722144947 -9.713318779053608151264308e-06 0.9250055930315951302489452
1.182792104579321712520823 -0.01064947450481383561804449 0.9434415790841355065055041
1.176233683663457263435248 0.009567016996790753471935354 0.9368831581682709463976266
1.182792104579321712520823 0.02978350849839537378693777 0.9434415790841355065055041
1.186907549389403015993594 -0.03523698024423871366650474 0.9221445296336417962734799
1.178702950549506134336752 -0.02212013841250999937604327 0.9322527753844440656649795
1.184438282503354145092089 -0.03688315816827129195454305 0.9415379321732301187708458
1.178702950549506134336752 0.02212013841250994733433899 0.932252775384443954642677
1.184438282503354145092089 0.03688315816827125726007353 0.9415379321732301187708458
1.186907549389403015993594 0.03523698024423869978871693 0.9221445296336417962734799
1.186907549389403015993594 -0.005710940732716109427546947 0.9073815098778804655310637
1.179526039511522572666991 0.01285937284485591698690587 0.9147630197557610198799694
1.186907549389403238038199 0.03142968642242796595276388 0.9073815098778805765533662
1.171321440671625246920939 0.003549824834937900536885325 0.9248712655065631782491664
1.170498351709609030635306 -0.001903646910905407683978208 0.9275980013794848932917603
1.73646721671611103943178 0.01039889990111126163996325 0.9270655665677778323185976
1.74323360835805551971589 0.03019944995055563047303693 0.9338319582097223126027075
1.74323360835805551971589 -0.009401650148333086376428724 0.9338319582097223126027075
1.72970082507416655914767 -0.03646721671611102832954998 0.9202991749258333520344877
1.72970082507416655914767 0.03646721671611102139065608 0.9202991749258333520344877
1.72293443343222207886356 -0.01666666666666668031315801 0.9135327832838888717503778
1.716168041790277598579451 -0.0239316831850002742498873 0.9067663916419443914662679
1.716168041790277598579451 0.009401650148333062090300061 0.9067663916419443914662679
1.784076836679568955901232 0.01517965997419533363821387 0.9318463266408617551306293
1.792038418339784389132774 0.03258982998709767514577962 0.9398079083010772993844739
1.792038418339784389132774 -0.002230510038706992690521469 0.9398079083010772993844739
1.779004259932284615075559 -0.02054405339568003696637533 0.9282607565860488962883323
1.788904534957006742246222 -0.03407683667956901141238291 0.9374175282645353934896093
1.77029917492583344085233 -0.03646721671611102832954998 0.9338319582097223126027075
1.77029917492583344085233 0.03646721671611102832954998 0.9338319582097223126027075
1.779004259932284393030955 0.02054405339568001268024666 0.9282607565860488962883323
1.788904534957006742246222 0.0340768366795689975345951 0.9374175282645353934896093
1.77417656165484638464136 -0.003133883382777710203959121 0.9226895549623753689516548
1.772237868290339912746845 0.0007435033462356412450877663 0.9214943649441044160042225
1.76353278328388896056822 0.01039889990111126163996325 0.9270655665677778323185976
1.75676639164194448028411 0.03019944995055563047303693 0.9338319582097223126027075
1.75676639164194448028411 -0.009401650148333086376428724 0.9338319582097223126027075
1.82687370971549389864208 0.00304530112307583884084794 0.9261715914075818734119139
1.828220830700053811668226 -0.000351059153955922853985322 0.9278697715460977324397618
1.822757268912818418016286 -0.01057606442051485691469015 0.9363786344564091201903011
1.8159465861410231113382 -0.03028803221025737693605784 0.9431893172282045378906901
1.8159465861410231113382 0.009135903369227671780294919 0.9431893172282045378906901
1.826326428465398166167688 -0.004139863623267424352913935 0.9259753693114420869392234
1.817817565555087000461754 -0.02045547113597817948105195 0.9337407288755176226757726
1.812901285017947117239601 -0.03637863445640919513035527 0.9424458138819689079213049
1.817817565555087000461754 0.02045547113597816213381719 0.9337407288755176226757726
1.812901285017947117239601 0.03637863445640919513035527 0.9424458138819687968990024
1.826326428465398166167688 0.004139863623267394862614843 0.9259753693114420869392234
1.824979307480838253141542 -0.0007435033462356631459716505 0.9242771891729262279113755
1.824432026230742298622545 0.0003510591539558932010559045 0.92408096707678621939408
1.81592316332043113291661 0.01517965997419533363821387 0.9318463266408617551306293
1.807961581660215699685068 0.03258982998709765432909791 0.9398079083010772993844739
1.807961581660215699685068 -0.002230510038706976644329316 0.9398079083010772993844739
1.190035061512660474747349 -0.001994048716776265512545807 0.9920291102294367391323249
1.181973865412175195288569 0.01539750507543054432180174 0.9840582204588732562200448
1.190035061512660252702744 0.0327890588676373259668928 0.9920291102294367391323249
1.183164189522766474027549 -0.0368831581682712156267101 0.9700473476910378423099246
1.178018237461601280813284 -0.02094137862714465225799643 0.9787431245871411888970215
1.187491902416785372054164 -0.03405822045887345328463169 0.988851370337943458288521
1.178018237461601280813284 0.02094137862714468348301899 0.9787431245871411888970215
1.187491902416785372054164 0.03405822045887348104020731 0.988851370337943458288521
1.183164189522766474027549 0.0368831581682712156267101 0.9700473476910378423099246
1.182792104579321712520823 -0.0106494745048137558207646 0.9565584209158642936543515
1.176233683663457485479853 0.009567016996790791635851825 0.9631168418317287427399265
1.182792104579321712520823 0.02978350849839533215357434 0.9565584209158642936543515
1.171087731602292070220983 0.0007248871255401448084401683 0.9718126187278320893270234
1.172500200456991104047688 -0.003549824834937842857329748 0.9739499747080709868285453
1.836378634456409253417064 0.01057606442051498008005694 0.9772427310871816263926348
1.843189317228204782139755 0.03028803221025755387785239 0.9840534138589769330707213
1.843189317228204782139755 -0.009135903369227600656632404 0.9840534138589769330707213
1.829567951684613946738978 -0.0363786344564092367637187 0.9704320483153860976699434
1.829567951684613946738978 0.03637863445640926451929431 0.9704320483153862086922459
1.822757268912818418016286 -0.01666666666666664908813544 0.9636213655435907909918569
1.8159465861410231113382 -0.02419742996410560037512383 0.9568106827717954843137704
1.8159465861410231113382 0.009135903369227739434510482 0.9568106827717952622691655
1.883959616522389746151589 0.01623403462219286455536782 0.9824907341220399104031458
1.891979808261194495599966 0.03352698447791599423162268 0.9909208930276645066470564
1.891979808261194495599966 -0.001058915233530273143983114 0.9909208930276647286916614
1.88095677783895220969157 -0.02033825097879892601637764 0.9803304946498960781298138
1.890812761733823510468255 -0.03395961652238979611162506 0.98997016252253033918862
1.872310302911090795774385 -0.03637863445640912574141623 0.9859316684546817199930047
1.872310302911090795774385 0.03637863445640913961920404 0.9859316684546817199930047
1.88095677783895220969157 0.02033825097879893989416544 0.9803304946498958560852088
1.890812761733823510468255 0.03395961652238980998941287 0.98997016252253033918862
1.874103632627518667419508 -0.003045301123075789834909743 0.9728510662494056493443395
1.87226784047145256018041 0.0006262831890564729987042059 0.9716415572823958735071415
1.863621365543591146263225 0.01057606442051496967171609 0.9772427310871816263926348
1.856810682771795839585138 0.03028803221025743244720907 0.9840534138589769330707213
1.856810682771795839585138 -0.009135903369227496573223846 0.9840534138589769330707213
1.902159632628862784287094 -0.04642976987705391828109569 0.9985894025059174339276069
1.90319571255555541888782 -0.01591763153188592572195859 0.9971788050118346458106089
1.902159632628862784287094 0.01459450681328206683717852 0.9985894025059174339276069
1.901785115061472852815427 -0.04717880501183466246395426 0.9983730864836806162543326
1.901785115061472852815427 0.04717880501183466246395426 0.9983730864836803942097276
1.901410597494082255209946 0.04674617296736084670616407 0.9981567704614434655141508
1.902821194988165043326944 0.01623403462219285761647392 0.9969624889895977171150321
1.901410597494082255209946 -0.01427810372297513494266319 0.9981567704614435765364533
1.191941443065846151228016 0.00248330901662871051174819 1.010541865950782547400877
1.183882886131692124820347 -0.01666666666666666990481716 1.018183097574160145271094
1.191941443065846151228016 -0.03085002431670462799684351 1.010541865950782547400877
1.175480209946472065496437 -0.0001386857037730142489830032 1.025618895650245221418118
1.1751360906954062546248 0.0005495527983587638904544592 1.025413462102952255605715
1.182794820478915598371827 -0.01757363638098330405057368 1.016762734607866924818609
1.191306862270227862055094 -0.0338828861316921026158866 1.00957498784164756422399
1.175026725089313828220838 -0.00104565541808965180997637 1.025165410793086540053309
1.175026725089313828220838 0.001045655418089651593135936 1.025165410793086540053309
1.182794820478915598371827 0.01757363638098330405057368 1.016762734607866924818609
1.191306862270227862055094 0.0338828861316921026158866 1.00957498784164756422399
1.190218796617451335606575 -0.001626578507194026412818744 1.008154624875354343771505
1.182341335621757361096229 0.01539750507543051656622612 1.01630924975070868754301
1.190218796617451335606575 0.03242158865805505607582404 1.008154624875354343771505
1.17457324023215559094524 0.0001386857037730142489830032 1.024711925935928302777711
1.174682605838247795304596 -0.0003574169159578735621186907 1.024959977245793796285511
1.239133661950699405451815 -0.003083617219731205755239856 1.042217279170430277446258
1.231240912219703442787022 0.014684274454463588921449 1.034434558340861176617409
1.239133661950699405451815 0.03245216612865839400647872 1.042217279170430277446258
1.223458191390134341958174 -0.03443455834086146111205906 1.026517490612898875212977
1.223458191390134119913569 0.03443455834086147498984687 1.026517490612898875212977
1.207782720829569056419928 0.003034981225798078115218903 1.010817702055367250935092
1.215565441659138379293381 -0.01473291044839672089827864 1.018734769783329330294919
1.207782720829569278464533 -0.03250080212259152251386141 1.010817702055367250935092
1.93439823619849615710109 0.01455116287742416920913957 1.031210678573548644720859
1.942199118099248167368387 0.03228273240925393083866624 1.039018711444842368862851
1.942199118099248167368387 -0.003180406654405595022472308 1.039018711444842368862851
1.925906968999971491385281 -0.03439823619849641939127949 1.023409796672797078542771
1.925906968999971713429886 0.0343982361984964402079612 1.023409796672796856498167
1.918106087099219703162589 -0.01666666666666665602702935 1.015601763801503354400779
1.90961481990069548153599 -0.03151939533338949522844885 1.007800881900751566178087
1.90961481990069548153599 0.00181393799994384219594068 1.007800881900751566178087
1.975902253495534610649997 0.001197849226835111854233551 1.025295595731300135611264
1.976349513667893464941017 -0.0003033288821170860888494503 1.02604618478577624962611
1.969086946719928565840974 -0.01422180501381259398741008 1.03453118256016818321541
1.961377119599604812449911 -0.03208632090731436403707733 1.042265591280084002789863
1.961377119599604812449911 0.003642710879689183001151065 1.042265591280084002789863
1.975232459255671146891586 -0.002537437706562060187737151 1.02492913037355393157668
1.966747461481279213302287 -0.01890077549111163560113802 1.032356376253324548031287
1.960154688773177777960655 -0.03453118256016843301559049 1.04120783938546268565517
1.966747461481278991257682 0.01890077549111164947892583 1.032356376253324325986682
1.960154688773177777960655 0.0345311825601684468933783 1.04120783938546268565517
1.975232459255670924846982 0.002537437706562068427673662 1.02492913037355348748747
1.974785199083311848511357 -0.001036259597609862515704693 1.024178541319077595517228
1.974115404843448384752946 0.000303328882117094491416287 1.02381207596133116943804
1.965630407069056673208252 0.01455116287742416053552219 1.031239321841101785892647
1.957815203534528203377363 0.03225408914170069252236317 1.039033033078618828426443
1.957815203534528203377363 -0.003151763386852374053404002 1.039033033078619050471048
1.241928153388412336965985 0.002120790549846940549472141 1.060192637161434525694403
1.233856306776824451887364 -0.01666666666666667337426411 1.0679885486633358127051
1.24192815338841211492138 -0.03121254278348638971918305 1.060192637161434525694403
1.225438547482342599437288 -0.0001688519222971877052109912 1.07560739940463978570051
1.225092634799448410021228 0.0005229734434912670752726438 1.07543033864404269372983
1.232277836984368768469267 -0.01784121403937545882745219 1.066602366423803349704258
1.240936957282310570960249 -0.03385630677682461425748173 1.059393728608256646239738
1.224851273795988237935717 -0.001343399295005970068422885 1.075020125718285424198939
1.224851273795988237935717 0.001343399295005934506591627 1.075020125718285424198939