# geometry NO_DATA 540
#  x  y  z
0.8837668254367128106707696 0.015516276394995221279971 0.5823246460941180480119783
0.8918834127183563609264638 0.03261643516504145190459951 0.590299530343305400847953
0.8918834127183563609264638 -0.001583882375051016283551419 0.590299530343305400847953
0.8890680294518175097451262 -0.003013386653667262521372194 0.5920814161054848145937513
0.881411890567681433061864 0.014482778890635686699917 0.5841628322109695403696605
0.8890680294518175097451262 0.03197894443493862898231228 0.5920814161054848145937513
0.8831877807759239695784004 -0.01729778847150436130175599 0.5827542886725445292483982
0.8916199289599864297173326 -0.03376682543671290226416914 0.5906112417207711740019249
0.8825562852854160755811108 -0.01769379524576107295952276 0.5833857841630523122233853
0.8898964895814631681503215 -0.03416283221096960698304201 0.59181793234711488338462
0.8825562852854160755811108 0.01769379524576108683731057 0.5833857841630525342679903
0.8898964895814629461057166 0.03416283221096961392193592 0.5918179323471149944069225
0.8831877807759239695784004 0.0172977884715043751795438 0.5827542886725445292483982
0.8916199289599864297173326 0.03376682543671290226416914 0.5906112417207713960465298
0.8753346772526502395095349 -0.0001976297014581257440075934 0.5744676930458912922361492
0.8750191163502314406485993 0.0004334921033795737844475371 0.5745856242468520003185972
0.8743876208597234356290073 0.0008294988776362850627435486 0.5752171197373598943158868
0.8740716862716345625372583 -0.0001976297014581259066379193 0.5757306840269071912530308
0.9353069629473248491891013 0.01271940743868371810620932 0.5793860741053503682351788
0.9426534814736623468789389 0.03135970371934182487905218 0.5867325926316879769473189
0.9426534814736623468789389 -0.005920888841974392136080496 0.5867325926316881989919239
0.9333873261662555265161245 -0.01926217759670718551734403 0.5814136965522640476677907
0.9420316001576134468109558 -0.03530696294732475759570178 0.5880843409296305779321301
0.9240671780259264167511901 -0.03395521464938242028885895 0.590158649556757453069622
0.9240671780259264167511901 0.03395521464938242722775286 0.5901586495567572310250171
0.9333873261662555265161245 0.01926217759670720633402574 0.5814136965522639366454882
0.9420316001576134468109558 0.0353069629473247853512774 0.5880843409296303558875252
0.92666268895596692889427 -0.0006218813160490737571711728 0.5727154297279840600154444
0.9253649334909466173115788 0.001973629613991455082622206 0.5733913038769552494855475
0.9160447853506175075466444 0.015516276394995221279971 0.5821362568814485438650763
0.9080223926753087093644012 0.03280482437771096992928932 0.5902053357369707597968045
0.9080223926753087093644012 -0.001772271587720537994528613 0.5902053357369707597968045
0.9865922067504584447306115 0.01014891983241653083958056 0.5768155864990830439253955
0.9932961033752292223653058 0.03007445991620827374646296 0.5835194831238539325823922
0.9932961033752292223653058 -0.009776620251375220740919225 0.5835194831238539325823922
0.9820023256209087225698795 -0.02189916969778318150963159 0.5787434522037836481800355
0.9913224737612377213125114 -0.03659220675045840587280566 0.5848047269269877057595863
0.9720395555790128927498017 -0.03530696294732477147348959 0.5867325926316881989919239
0.9720395555790128927498017 0.0353069629473247853512774 0.5867325926316879769473189
0.982002325620908611547577 0.02189916969778319191797245 0.578743452203783537157733
0.9913224737612377213125114 0.03659220675045841975059346 0.5848047269269875947372839
0.9772720586101293349656771 -0.001973629613991434265940494 0.5707543117758789863458446
0.974655807094571002835437 0.003258873417125082109363499 0.5713969336774458174232905
0.9646930370526752840376616 0.01271940743868371116731542 0.5793860741053502572128764
0.9573465185263376753255216 0.03135970371934182487905218 0.5867325926316879769473189
0.9573465185263376753255216 -0.005920888841974393870803972 0.5867325926316879769473189
1.034430609826036073783939 0.0144721136812610094019016 0.5811387803479277636142797
1.04221530491301805909643 0.0322360568406305225686026 0.5889234754349096379044681
1.04221530491301805909643 -0.003291829478108488152288125 0.5889234754349097489267706
1.028993661453997177090969 -0.02102281657649458096459583 0.5778963849612944736477971
1.038956431495893006911047 -0.03443060982603617092845383 0.5867618785104875556157822
1.020111689874312332904083 -0.03659220675045840587280566 0.5835194831238541546269971
1.020111689874312332904083 0.03659220675045841975059346 0.5835194831238541546269971
1.028993661453997177090969 0.02102281657649458096459583 0.5778963849612943626254946
1.038956431495893006911047 0.03443060982603617092845383 0.5867618785104874445934797
1.024467839784140021919256 -0.003258873417125082109363499 0.5722732867987346816462946
1.02228976482922617741167 0.001097276492702833720904732 0.5711924883365235849908004
1.013407793249541555269388 0.01014891983241652390068666 0.5768155864990831549476979
1.006703896624770777634694 0.03007445991620827374646296 0.5835194831238539325823922
1.006703896624770777634694 -0.009776620251375222475642701 0.5835194831238541546269971
1.083868472035390828622781 0.01559638926255164405321185 0.5822630559292183427544387
1.091934236017695347698009 0.03279819463127582601646992 0.5903288199115228618296669
1.091934236017695347698009 -0.001605416106172525116460581 0.5903288199115228618296669
1.081954987945307644636728 -0.01829908186142700440846021 0.581419849243250297377017
1.090836959524992266779009 -0.03386847203539083972501089 0.5897666821208775722595874
1.073354085260945556257184 -0.03443060982603615705066602 0.5889234754349096379044681
1.073354085260945556257184 0.03443060982603615705066602 0.5889234754349096379044681
1.081954987945307644636728 0.0182990818614269974695663 0.581419849243250297377017
1.090836959524992488823614 0.03386847203539083972501089 0.5897666821208776832818899
1.074986500455705984435895 -0.001097276492702834154585601 0.5739162230515910678718683
1.074170292858325881368842 0.0005351387020574999153765816 0.5736351541562683120645261
1.065569390173963792989298 0.01447211368126101113662507 0.5811387803479275415696748
1.057784695086981807676807 0.03223605684063050869081479 0.5889234754349096379044681
1.057784695086981807676807 -0.003291829478108476442904662 0.5889234754349096379044681
1.126932206479675402377438 0.003200633128051529052715551 0.5762684266483765194166722
1.128366578085876259507359 -0.0003318899156493631684601564 0.5780346881702269623559687
1.123067932922769518455652 -0.01026540041056372455641199 0.5865339664613850034768916
1.116334916153461920274026 -0.03013270020528191484032732 0.5932669832306924906362156
1.116334916153461920274026 0.009601899384154458788609432 0.5932669832306924906362156
1.126498692170821769309441 -0.004067661745758399671757388 0.5761668022551724721580513
1.117999413879663617166216 -0.02040243849677568846456843 0.5841309418442729439746586
1.113134283025410287137902 -0.03653396646138484110677425 0.5927318445286350323542024
1.117999413879663617166216 0.02040243849677570928125014 0.5841309418442728329523561
1.113134283025410731227112 0.03653396646138486192345596 0.5927318445286350323542024
1.126498692170821991354046 0.004067661745758418753715624 0.5761668022551723611357488
1.125064320564620690134916 -0.0005351387020575078300524408 0.5744005407333220292187548
1.124630806255767279111524 0.0003318899156493818167375232 0.5742989163401179819601339
1.116131527964609349012903 0.01559638926255165272682923 0.5822630559292183427544387
1.108065763982304385848465 0.03279819463127583989425773 0.5903288199115229728519694
1.108065763982304385848465 -0.001605416106172526200662753 0.5903288199115230838742718
0.834164269494287458073245 0.01448208382194136195630918 0.6314101057500165481428667
0.8420821347471437734455435 0.03197968664956218204364902 0.6390666157414642833956009
0.8420821347471437734455435 -0.003015519005679448590051539 0.6390666157414642833956009
0.8402496645140784536920364 -0.001641986876973300412199674 0.6418916513910515320162631
0.8322873551704617067770187 0.01547464923846319020950268 0.6337833027821031528503681
0.8402496645140784536920364 0.0325912853538996918900672 0.6418916513910515320162631
0.8333832793524655890848862 -0.01769720814507869457998801 0.6325523431915114347390272
0.841816415344527890773918 -0.03416426949428747611436918 0.6398931877612110685760172
0.8327428265476035651460052 -0.01731624143289437617321269 0.6331927959963735697002107
0.8405799538255642744388751 -0.03378330278210316117704082 0.64162593198843576036694
0.8327428265476035651460052 0.01731624143289437270376574 0.6331927959963735697002107
0.8405799538255642744388751 0.03378330278210316117704082 0.64162593198843576036694
0.8333832793524657001071887 0.01769720814507869111054106 0.6325523431915115457613297
0.841816415344527890773918 0.03416426949428748305326309 0.6398931877612111795983196
0.8257311335022251563842133 -0.0001996053174578843046778343 0.6240692611803169143058767
0.8252158627630190590451775 0.0008309361609541403162829121 0.624384926602065015721621
0.8245754099581571461285989 0.0004499694487698219095075935 0.6250253794069269286381996
0.8244502278925012195287536 -0.0001996053174578862291366904 0.6253501667900408511613364
0.8888084679118570807787592 -0.03451083657786257335997604 0.6232337451332060629383136
0.8732337451332059519160111 -0.03451083657786256642108214 0.6388081203775101135633463
0.8732337451332059519160111 0.03451083657786255948218823 0.6388081203775101135633463
0.8888084679118570807787592 0.03451083657786255948218823 0.6232337451332060629383136
0.888894027268370967576061 -0.003361391020560229765667959 0.607744581711068709850565
0.8810638862007884597460361 0.01448277889063566761795876 0.6154891634221373308832881
0.888894027268370967576061 0.0323269488018315745425646 0.607744581711068709850565
0.8654891634221373308832881 0.01448208382194135501741528 0.6310635386664413815083208
0.8577445817110685988282626 0.03232625373313725847257416 0.6388933321996767000783279
0.8577445817110685988282626 -0.00336208608925453889676449 0.6388933321996767000783279
1.13653396646138493686351 0.01026540041056352506321225 0.6269320670772302594997427
1.143266983230692535045137 0.03013270020528171014295715 0.6336650838465376356367642
1.143266983230692535045137 -0.009601899384154661751256121 0.6336650838465377466590667
1.129800949692077338681884 -0.03653396646138484804566815 0.6201990503079226613181163
1.129800949692077338681884 0.03653396646138485498456205 0.6201990503079226613181163
1.123067932922769518455652 -0.01666666666666666296592325 0.6134660335386152851810948
1.116334916153461920274026 -0.02373143394917887755157793 0.6067330167693075759771659
1.116334916153461920274026 0.009601899384154453584439004 0.6067330167693075759771659
1.184080851445419080292254 0.01517163044249488813852711 0.6318382971091616173708871
1.192040425722709517941666 0.03258581522124742724244584 0.6397978713864520550202997
1.192040425722709517941666 -0.002242554336257659639008999 0.6397978713864520550202997
1.178906142697298875532397 -0.0206148179068040594830169 0.6281586245852132099898313
1.188839792594658106850147 -0.03408085144541921074345936 0.6373447563704863760847275
1.170199050307922927771642 -0.03653396646138484804566815 0.6336650838465378576813691
1.170199050307922705727037 0.03653396646138485498456205 0.6336650838465378576813691
1.178906142697298875532397 0.02061481790680406989135776 0.6281586245852130989675288
1.188839792594658106850147 0.03408085144541921074345936 0.6373447563704863760847275
1.174147201548060071019108 -0.003200633128051513873885137 0.622652165323888451275991
1.172173125927991499395375 0.000747518112085884811612857 0.6214256078159056118082049
1.163466033538615329590016 0.01026540041056353026738268 0.6269320670772302594997427
1.156733016769307731408389 0.03013270020528171014295715 0.6336650838465377466590667
1.156733016769307731408389 -0.009601899384154658281809169 0.6336650838465377466590667
1.226834699082942625736337 0.002969309808135639841553122 0.6261346107251928305714728
1.228144331897572882894565 -0.0003500441788749751462553328 0.6277942877186981629478169
1.222605286282937964159601 -0.01072804705039539542588134 0.6363026431414690042842608
1.215756607853672344177198 -0.03036402352519770864169857 0.6431513215707345132443606
1.215756607853672344177198 0.008907929424406914320488937 0.6431513215707345132443606
1.226285917937462333071608 -0.004066872099096489716341107 0.6259358737585873910802547
1.217777562514691158668256 -0.02038349458688818588436575 0.6336967110692723892384493
1.212787298045536754642626 -0.03630264314146897791646396 0.6424038034586485590438087
1.217777562514691602757466 0.02038349458688818588436575 0.6336967110692723892384493
1.212787298045536754642626 0.03630264314146897791646396 0.6424038034586485590438087
1.226285917937462333071608 0.004066872099096487981617631 0.6259358737585873910802547
1.224976285122831853868774 -0.0007475181120858752706337391 0.6242761967650820587039107
1.224427503977351339159441 0.0003500441788749735199520741 0.6240774597984766192126926
1.215919148554580608845299 0.01517163044249488813852711 0.6318382971091615063485847
1.207959574277290393240492 0.03258581522124743418133974 0.6397978713864518329756947
1.207959574277290393240492 -0.002242554336257658771647261 0.6397978713864519439979972
0.8364978849055131338019464 -0.006202538113384283360862703 0.692700423018897115667869
0.8291983079244105159233413 0.01253164125774374089428154 0.6854008460377944977892639
0.8364978849055131338019464 0.03126582062887175300636144 0.692700423018897115667869
0.8401044993945696592874128 -0.03397743903866349418629866 0.6740338414420046220243421
0.8313334184231073731297101 -0.01937828507645817169291469 0.6834009311275683895559041
0.8379212919046443719395256 -0.03540084603779467681272664 0.6920563173135669821078864
0.8313334184231072621074077 0.01937828507645820291793726 0.683400931127568611600509
0.8379212919046443719395256 0.03540084603779469762940835 0.6920563173135669821078864
0.8401044993945696592874128 0.03397743903866351500298038 0.6740338414420046220243421
0.8401525963857983114735362 -0.001836123133533630819372306 0.6580112804806681481295527
0.8320932189139014223400181 0.01547464923846320929146092 0.6660225609613363850769474
0.8401525963857983114735362 0.03278542161046003877711286 0.6580112804806681481295527
0.8233221379424391361823155 0.002067512704461369962838369 0.6753896506469001526085094
0.8226104344428735171135258 -0.0006441057053301493893343599 0.6767454598517961272818866
1.236302643141468760035195 0.01072804705039525838272674 0.6773947137170619470225574
1.243151321570733935928388 0.03036402352519762884441867 0.6842433921463273449603548
1.243151321570734157972993 -0.008907929424407094731730439 0.6842433921463273449603548
1.229453964712203362097398 -0.03630264314146903342761519 0.67054603528779654908476
1.229453964712203140052793 0.03630264314146902648872128 0.6705460352877963270401551
1.222605286282937742114996 -0.01666666666666668378260496 0.6636973568585309291023577
1.215756607853672344177198 -0.02442540390892636997799414 0.6568486784292654201422579
1.215756607853672344177198 0.008907929424406962892746265 0.6568486784292654201422579
1.283954464903497516559128 0.01624458069169592774882993 0.6825011587756835140794465
1.291977232451748669461722 0.03353237892852714563396432 0.6909340149066137692912548
1.291977232451748669461722 -0.001043217545135279511123172 0.6909340149066137692912548
1.281042450964193335494201 -0.02025710804496686293085794 0.6804213193940291670713805
1.290860439201594545011176 -0.0339544649034978843205046 0.6900282646439449552033807
1.272398551845777880942023 -0.03630264314146897791646396 0.6860959087043091431112884
1.272398551845777880942023 0.03630264314146897097757005 0.686095908704309032088986
1.281042450964193335494201 0.02025710804496683864472928 0.6804213193940291670713805
1.290860439201594545011176 0.03395446490349787738161069 0.6900282646439450662256831
1.274136476666096307042153 -0.002969309808135658056149619 0.6728942135257676149251438
1.272341255976946250427773 0.0006211315701645230436672707 0.6717201244067819709826495
1.263697356858530795875595 0.01072804705039525838272674 0.6773947137170619470225574
1.256848678429264953848588 0.03036402352519757680271439 0.6842433921463273449603548
1.256848678429265175893192 -0.008907929424407039220579207 0.6842433921463273449603548
1.302115733211479664532817 -0.04650802036860311045041172 0.698623753580082551550845
1.303122236235615627464313 -0.0159271798751043601460875 0.6972475071601653695552159
1.302115733211479442488212 0.01465366061839430862623335 0.698623753580082551550845
1.301745989815698445468684 -0.04724750716016534735075538 0.698412710592597241188173
1.301745989815698223424079 0.04724750716016541673969442 0.698412710592597463232778
1.30137624641991722640455 0.04682542118519468499204805 0.6982016676051119308255011
1.302752492839834630444784 0.01624458069169601448500373 0.6970364641726800591925439
1.30137624641991722640455 -0.01433625980180273408459701 0.6982016676051119308255011
0.8208873463868604503090864 -0.02493518433576765239156892 0.7458225307226280520467299
0.8167098771094881692889089 4.321044282177878570212065e-05 0.7416450614452561040934597
0.8208873463868602282644815 0.02502160522141112092286974 0.7458225307226280520467299
0.836497884905513022779644 -0.03540084603779488497954375 0.7218987309433076982045918
0.8260762002206798459980064 -0.02704590748305089192848882 0.7343879283326023577060937
0.827131561794321457092849 -0.04164506144525600972450263 0.7437550180181664583045631
0.8260762002206797349757039 0.02704590748305098560355653 0.7343879283326023577060937
0.8271315617943211240259416 0.04164506144525609993012338 0.743755018018166680349168
0.8364978849055129117573415 0.03540084603779489191843766 0.7218987309433076982045918
0.836497884905513022779644 -0.00620253811338449152767982 0.7072995769811024624473816
0.8291983079244102938787364 0.01253164125774372528177025 0.7145991539622049693036843
0.836497884905513022779644 0.03126582062887194729539075 0.7072995769811024624473816
0.8187766232395770060747964 0.008311728111922760120489073 0.7270883513514997398274886
0.8156545155358465581940663 -0.002067512704461465372629547 0.7322779717596917814503854
1.334401526335503351816669 0.01453638328924618597359775 0.731199998642452664299185
1.342200763167751720317256 0.0322712429580830073572173 0.7390022867881610446616492
1.342200763167751720317256 -0.003198476379590623266957472 0.7390022867881610446616492
1.325903839896866331926617 -0.03440152633550348088009585 0.723400761810204628865506
1.325903839896866331926617 0.03440152633550348088009585 0.723400761810204628865506
1.318104603064617963426031 -0.01666666666666666990481716 0.7155984736644962485030419
1.309606916625980499446769 -0.03152565353960096183882911 0.7077992368322482130693629
1.309606916625980499446769 0.001807679793732375585560423 0.7077992368322482130693629
1.375927698667213983085844 0.001236037199538113622726554 0.7253083385323241261133376
1.376390877233260479073351 -0.0003096800674447791482460368 0.7260811971658155394848677
1.369149339501519069273172 -0.01417339539603837579584411 0.7345693705328713019042652
1.361444623203730941440881 -0.03207609926224314761400436 0.7422846852664355399298302
1.361444623203730941440881 0.003729308470166402093848301 0.7422846852664355399298302
1.375244868342746507039465 -0.002601697848473007168568216 0.7249351882753014564286786
1.36675669497569085564237 -0.01895868444769489152834652 0.7323582199536469161671448
1.360197987568416699843965 -0.03456937053287143651880697 0.7412195435777253482712013
1.36675669497569085564237 0.01895868444769489152834652 0.7323582199536470271894473
1.36019798756841692188857 0.03456937053287144345770088 0.7412195435777253482712013
1.375244868342746507039465 0.002601697848473006734887347 0.7249351882753014564286786
1.374781689776699789007353 -0.001055980581490114072334974 0.7241623296418100430571485
1.374098859452232312960973 0.0003096800674447788771954937 0.7237891793847872623501871
1.365610686085176661563878 0.01453638328924618597359775 0.7312122110631327220886533
1.357805343042588486213162 0.03225903053740296344553684 0.7390083929985010735563833
1.357805343042588486213162 -0.00318626395891059019729874 0.7390083929985010735563833
0.8359573683531680288183452 -0.006851157976198314972227088 0.7928085263293663809136547
0.8287658946825344763453813 0.01209922801586787999283956 0.7856170526587329394629933
0.8359573683531681398406477 0.03104961400793407322318274 0.7928085263293664919359571
0.8208873463868606723536914 -0.04164506144525572522985257 0.7625324078321163989713227
0.8197238815027502178978125 -0.02726211410398857865056144 0.7720076008281495649754333
0.8299293595666450418235627 -0.03561705265873285619626643 0.7844967982174440024323303
0.8197238815027502178978125 0.0272621141039886896728639 0.7720076008281495649754333
0.8299293595666453748904701 0.03561705265873287007405423 0.7844967982174442244769352
0.8208873463868606723536914 0.04164506144525582931326113 0.7625324078321165099936252
0.8208873463868605613313889 -0.02493518433576737136636581 0.7541774692773721699978751
0.8167098771094885023558163 4.321044282178804207816825e-05 0.7583549385547441179511452
0.8208873463868604503090864 0.02502160522141085030600749 0.7541774692773720589755726
0.8155464122253778258553325 0.002283719325399627842615446 0.7678301315507773949775583
0.8185604166186393193527238 -0.008311728111922385420218262 0.7731278552694382799614914
1.384583498545992386041803 0.01437175235802517526961797 0.780935710966353724415967
1.392291749272996259634283 0.03228858423735078697625056 0.7887466697516958280544941
1.392291749272996259634283 -0.003545079521300449013759826 0.7887466697516958280544941
1.376871718241643671731822 -0.03458349854599227640727932 0.7732274602393497398011846
1.376871718241643893776427 0.03458349854599228334617322 0.7732274602393497398011846
1.369163467514640020183947 -0.01666666666666664908813544 0.76541650145400774718496
1.361451687210291527918571 -0.02958989685004608308216412 0.75770825072700387359248
1.361451687210291527918571 0.003743436483287243717044124 0.75770825072700387359248
1.425418990777620464882602 0.000453874299221283111771541 0.7750348835216009923954061
1.4255499011132259923329 -0.0001920536280096378088828868 0.7753578474852164115205255
1.417753028283670335696343 -0.01540169203110102955078808 0.7837872076325546055741711
1.409825245118509373654092 -0.03252223299698897562848288 0.7918936038162773805026973
1.409825245118509373654092 0.001718848934786912623778887 0.7918936038162773805026973
1.424907486783661969553805 -0.001476882287137121045617061 0.7747154331556527218083374
1.416478126636324219589369 -0.01795149532579414647370797 0.7819973361486700635936131
1.409192757800726614192399 -0.033787207632554612513065 0.7907461466619565282343274
1.416478126636324219589369 0.01795149532579416035149578 0.7819973361486700635936131
1.409192757800726614192399 0.033787207632554612513065 0.7907461466619567502789323
1.424907486783661969553805 0.001476882287137137525490083 0.7747154331556527218083374
1.424776576448056442103507 -0.0008309543599062000707525244 0.7743924691920371916609156
1.424265072454098390863919 0.0001920536280096542345457999 0.7740730188260889210738469
1.415835712306760640899483 0.01437175235802517006544754 0.781354921819106373881425
1.407917856153380498085426 0.03186937338459804036627787 0.7889562751780720972760719
1.407917856153380498085426 -0.003125868668547710643723647 0.7889562751780722082983743
0.8400962456445424386686227 -0.00190473546459274606715284 0.842000981109134905011615
0.8320466511585685731589024 0.01543056008701084585998942 0.834001962218269943249993
0.8400962456445424386686227 0.03276585563861443561872733 0.8420009811091350160339175
0.8361138663994666098133735 -0.03561705265873267578502492 0.8217309190581993938451433
0.8297299379490642445844628 -0.01961901487700294308136328 0.8303985668340009285159908
0.8385870776552695193828413 -0.03400196221827025966355507 0.8398737598300340945201015
0.8297299379490643556067653 0.01961901487700294655081024 0.8303985668340010395382933
0.8385870776552695193828413 0.03400196221827026660244897 0.8398737598300340945201015
0.8361138663994667208356759 0.03561705265873268966281273 0.8217309190581995048674457
0.8359573683531681398406477 -0.006851157976198144101964704 0.8071914736706334858595824
0.8287658946825345873676838 0.01209922801586786958449871 0.8143829473412670383325462
0.8359573683531682508629501 0.03104961400793389281194123 0.8071914736706335968818848
0.8223819662321321111164707 0.0006686288849369263591337909 0.8230505951170687950479987
0.8231895114523632983605239 -0.002283719325399350720540159 0.8245267692222367772458824
1.426753070948427293274108 0.002123834620888057772569724 0.825370763672460761029015
1.427469411439879376501949 -0.0006911536379833951859730234 0.8267782578018963990373891
1.420914335908442627243176 -0.01241899742489045721516305 0.8354571679542213136215878
1.413642919885553350667351 -0.03120949871244518836199688 0.8427285839771105901974124
1.413642919885553794756561 0.006371503862664278268479467 0.8427285839771108122420173
1.420032628856114254034537 -0.01948165492553812633280685 0.8193414752181312765699772
1.411269865530119904661888 -0.03402448697131672805671343 0.8099462245743539456910298
1.413477553324677504775764 -0.03545716795422140105165099 0.8280203853704561911541759
1.413477553324677504775764 0.03545716795422140105165099 0.8280203853704561911541759
1.418706648113885027129299 0.01948165492553811939391295 0.8173830071581190681584417
1.411986206021572431978939 0.03545716795422140105165099 0.8113537187037895836994039
1.417990307622432499812248 -0.01666666666666667337426411 0.8159755130286834301500676
1.409943884787890455712045 -0.03137720505978431467797307 0.8079877565143417372794943
1.409943884787890455712045 0.00195612827354902036117168 0.8079877565143417372794943
0.8420829256630911752168345 0.003031968951010199312540161 0.8609490432879189913961682
0.834165851326182261615827 -0.01666666666666667684371106 0.8685989101385960253765006
0.8420829256630911752168345 -0.03030136438232313225715764 0.8609490432879189913961682
0.8257323801318283695849232 -0.0002002757220411384431191237 0.8759326558538692575339724
0.8252159832743833911550269 0.0008325179928487453414470698 0.8756165347184652336665067
0.8328993442998415819289448 -0.01796357413969214278370856 0.8668507309230025770219186
0.8414648723732632840111023 -0.03416585132618209230681572 0.8598493178088384425450386
0.8250839263953158031483781 -0.001497183195066606334680537 0.8752842021173563580305199
0.8250839263953158031483781 0.001497183195066576193860142 0.8752842021173563580305199
0.8328993442998415819289448 0.01796357413969212890592075 0.8668507309230025770219186
0.8414648723732632840111023 0.03416585132618209230681572 0.8598493178088384425450386
0.8401983653469227153465226 -0.001700496059832532283473405 0.858101138593244883168154
0.8322508905633290154923998 0.01543056008701083545164856 0.8662022771864897885407686
0.8401983653469227153465226 0.03256161623385421532983486 0.858101138593244883168154
0.8244354726588030146672281 0.0002002757220411081938785114 0.8746357483808436805716724
0.8245675295378707136961793 -0.0004643894801767226043244519 0.8749680809819526672299617
0.8888880406740817807786925 -0.003372026866878290261159146 0.8922600675409599890741674
0.8810539190256007069379507 0.01448144154837533587043552 0.8845201350819200669661768
0.8888880406740817807786925 0.03233490996362894942528499 0.8922600675409599890741674
0.8733139865665608958522625 -0.03452013508192028345966662 0.8766931263533740414928275
0.8733139865665608958522625 0.03452013508192029733745443 0.8766931263533740414928275
0.8577399324590398999035301 0.003386252706748401307412788 0.86112618516578820493379
0.8654798649180797109892183 -0.01446721570850521311479842 0.8689531938943342304071393
0.8577399324590398999035301 -0.03232068412375883187381831 0.8611261851657880939114875
1.427970286370486840965555 0.00169290349919725465616116 0.8737226171287103548834807
1.427754820809641334022899 -0.002123834620888148845552212 0.8756309861887530132662505
1.420052473665061265606369 -0.01328085966827216579666526 0.8850262368325304551675003
1.412565592081326482087889 -0.03164042983413608428611141 0.892513118416265127663678
1.412565592081326482087889 0.00507871049759175963167479 0.892513118416265127663678
1.420267939225906772549024 -0.02048340478675206993708358 0.8681441046050182297477704
1.41321198876386278087125 -0.03545716795422147737948393 0.8589643195220864058114785
1.412565592081326482087889 -0.0350262368325305883942633 0.8775393552487957826713227
1.412565592081326482087889 0.0350262368325305883942633 0.8775393552487957826713227
1.42069887034759756438973 0.02048340478675206993708358 0.8664512011058210783076561
1.412996523203017495973199 0.0350262368325305883942633 0.8608726885821291752165507
1.420914335908443071332385 -0.0166666666666666664353702 0.8645428320457784199248863
1.413642919885553350667351 -0.02696182947066897567234278 0.8572714160228891433490617
1.413642919885553794756561 0.006371503862664362402568052 0.8572714160228891433490617
0.8918948599090767981323324 0.00170816518359526853254593 0.9098133052745184246035137
0.8837897198181536850825069 -0.01666666666666665602702935 0.9177489425008743539891043
0.8918948599090767981323324 -0.03162516814973807127708838 0.9098133052745184246035137
0.8753597882326930035290502 -0.0001931965042543132976549103 0.9255529847369473595009026
0.8750349967381556570700241 0.0004563864848203458474996952 0.9254213897466644356271104
0.8820673940926784251104209 -0.01792609299932573091451715 0.916493339985157362548307
0.8908022473499311866262929 -0.03378971981815365871471002 0.9091874159251309706064603
0.8747300750663635771076088 -0.001452622836913384715695763 0.9249232715706178220571587
0.8747300750663635771076088 0.001452622836913422012250496 0.9249232715706178220571587
0.8820673940926783140881184 0.01792609299932575173119886 0.916493339985157362548307