# geometry NO_DATA 532
#  x  y  z
0.8961754411236056983014464 0.02686039122615565058471709 0.5306849501025499016293452
0.8923508822472113743984323 -0.0166666666666666664353702 0.5346056367366833761423095
0.8961754411236056983014464 -0.006472942107177690092278954 0.5306849501025499016293452
0.8801201884943157249807655 -0.007794720839124649747198248 0.5423508822472112855805904
0.8717140536178142884438103 -0.03347893641966939726195562 0.546175441123605498461302
0.8717140536178142884438103 0.01788949474142009429811218 0.546175441123605498461302
0.890450291676041949529008 -0.04235088224721141048068063 0.5327050461655139512728852
0.8782195979231461890890387 -0.04235088224721140354178672 0.5404502916760417496888635
0.8782195979231461890890387 0.04235088224721141048068063 0.5404502916760417496888635
0.890450291676041949529008 0.04235088224721142435846843 0.5327050461655138402505827
0.945130639966981656030498 -0.01103688130453609091141676 0.5076842527140833505328033
0.947565319983490916833091 0.01742709199577917311696496 0.5080644653786394737693399
0.947565319983490916833091 -0.03950085460485135147035152 0.5080644653786396958139449
0.9254747603698431079877196 -0.03569109856495342875115639 0.5136774537361945558444631
0.9374216563354955678022407 -0.04513063996698192525958149 0.5117725757162456812210394
0.9112427737196855392909356 -0.04056045859797149932823856 0.5201641948758243261252687
0.9112427737196855392909356 0.04056045859797150626713247 0.5201641948758243261252687
0.9254747603698431079877196 0.0356910985649534356900503 0.5136774537361945558444631
0.9374216563354955678022407 0.0451306399669819391373693 0.5117725757162456812210394
0.9331837440013291962159769 -0.007227125264638163855412945 0.509589130734032225156227
0.9236715280521858861817464 0.01179730663364859932773498 0.5118742214185374450607924
0.9094395414020284285072648 0.001176175645610899600512766 0.5183609625581671043192955
0.9047197707010141698447114 0.02506996757691573596282808 0.5225626130132916546955357
0.9047197707010141698447114 -0.02271761628569393676180255 0.5225626130132916546955357
0.998327029034318358391431 -0.01326208925743899320892627 0.5033752596702952830653999
0.9991635145171591236845643 0.0183982731102127691769077 0.5042410628920683812737025
0.9991635145171591236845643 -0.04492245162509075906420719 0.5042410628920684922960049
0.9697675127299769659572348 -0.04573057643421316043053082 0.5047738170289920445199527
0.985135953096591188149489 -0.04832702903431843055592765 0.5051778794335533007142658
0.9539373315461512348178985 -0.04740354739989473265016073 0.5067522242272166632659491
0.9539373315461512348178985 0.04740354739989474652794854 0.5067522242272165522436467
0.9697675127299769659572348 0.04573057643421316736942472 0.5047738170289919334976503
0.985135953096591188149489 0.04832702903431843749482155 0.5051778794335533007142658
0.9829585886677043582437818 -0.0140702140665614015141438 0.5029711972657341378933893
0.9684266337839311233892658 0.01499369570098509941991072 0.5034329380829459799073788
0.9525964526001052812276271 -0.01103688130453609091141676 0.5054113452811704876310728
0.9512982263000525628982018 0.01969999942869197703809725 0.5069280116621831533407772
0.9512982263000525628982018 -0.04177376203776415886093076 0.5069280116621832643630796
1.044832429951422447800269 -0.006544398689761811785392531 0.5102287040370299120439768
1.047416214975711135082292 0.02162136459499396437533569 0.5127060530011935401972778
1.047416214975711135082292 -0.03471016197451759488501466 0.5127060530011935401972778
1.017309017166895035444441 -0.04264403915657308946629556 0.5058099205488058025537157
1.032881488436137029651718 -0.04483242995142244780026886 0.5097768591398336157638482
1.003226135524517115271692 -0.04781160920515065138047817 0.5049284242291309787731279
1.003226135524517115271692 0.04781160920515065831937207 0.5049284242291309787731279
1.017309017166895035444441 0.04264403915657309640518946 0.5058099205488059135760182
1.032881488436137029651718 0.04483242995142245473916276 0.5097768591398336157638482
1.029259958682180453592991 -0.01447827587181731504029081 0.5062617654460022098561467
1.016271272437227146667738 0.0114990966180891114600815 0.5047721758191381358216177
1.002188390794849226494989 -0.01326208925743899320892627 0.5038906794994632010187274
1.001094195397424613247495 0.01788285328104499347090517 0.5044987728066523402503663
1.001094195397424613247495 -0.04440703179592297988875771 0.5044987728066523402503663
1.085820256590248611416882 0.004096382367893620056464865 0.5245612679270315048540851
1.092910128295124350117362 0.02324997229147555272144032 0.5278529207394360156513358
1.092910128295124350117362 -0.01505720755568831087378712 0.5278529207394357936067308
1.073138759128321018110341 -0.02356368292713722362163864 0.5206518358714056216030031
1.083677138963432096119277 -0.03582025659024859476353697 0.5249050735571301196102922
1.063561964166530149356049 -0.03774342633688862469476533 0.5186230981549824203824528
1.063561964166530149356049 0.03774342633688863163365923 0.5186230981549824203824528
1.073138759128321018110341 0.02356368292713722362163864 0.5206518358714056216030031
1.083677138963432096119277 0.03582025659024860170243088 0.5249050735571301196102922
1.075281876755137755452552 -0.004410093003555295293471872 0.520308030241307006846796
1.071833368624902416144096 0.002486923256915261025434827 0.5193464453679870196367574
1.062256573663111325345199 -0.006544398689761815254839483 0.5173177076515638184162071
1.056128286831555573854757 0.01453236098046014647400259 0.516250554808460493383393
1.056128286831555573854757 -0.02762115835998377524895808 0.516250554808460493383393
1.13616681602136915252288 -0.01061966031737712062854584 0.5467864763387458859611456
1.122903693502565580786268 0.016286625693448318619172 0.5435729526774919495579752
1.136166816021368930478275 0.04319291170427375786688984 0.5467864763387458859611456
1.119690169841311533360795 -0.04357295267749210221364109 0.5405013341893594169818016
1.119690169841311533360795 0.0435729526774921160914289 0.5405013341893594169818016
1.10321352366125391419871 0.03100266837871906711043835 0.5342161920399728369801551
1.106427047322507961624183 0.004096382367893622658550079 0.5372878105281055916009336
1.103213523661254136243315 -0.02280990364293181832389124 0.5342161920399728369801551
0.8428608790873191036752132 0.008725444292417535233075121 0.5658645652050983132497208
0.8357217581746382295548869 -0.0166666666666666664353702 0.5722236012335277788309895
0.8428608790873191036752132 -0.02460788904091579243349486 0.5658645652050983132497208
0.8220782796176491213913096 -0.01062029044731168173076874 0.5857217581746382295548869
0.8155739219733408873480585 -0.02967538195528325942196268 0.5928608790873191036752132
0.8155739219733408873480585 0.008434801060659899429872155 0.5928608790873191036752132
0.8348786375454502195481155 -0.03572175817463824065711719 0.5713804806043398798465205
0.8212351589884612224068405 -0.0357217581746382475960111 0.5848786375454502195481155
0.8212351589884610003622356 0.0357217581746382475960111 0.5848786375454502195481155
0.8348786375454502195481155 0.03572175817463824065711719 0.5713804806043398798465205
0.8580467310193566898846029 -0.04758639380476945013320744 0.5536107581055855764162743
0.8536107581055857318474978 -0.04758639380476945013320744 0.5567792678311418441694514
0.8536107581055857318474978 0.04758639380476945013320744 0.5567792678311419551917538
0.8580467310193566898846029 0.04758639380476945707210135 0.5536107581055855764162743
0.8600787489251572326409701 -0.03871444797722743691448244 0.5512068030976150501132338
0.8568495791090013913304801 -0.007794720839124651481921724 0.552413606195230388884454
0.8600787489251572326409701 0.02312500629897813742008594 0.5512068030976151611355363
0.8524136061952305443156774 -0.01032964721555403725394839 0.555582115920786656637631
0.8512068030976152055444572 0.02059007992254874644388885 0.5575438225487278076641928
0.8512068030976152055444572 -0.04124937435365681748233868 0.5575438225487276966418904
1.149927829115802158099768 -0.01650562574683395872243707 0.5501526913441141530825007
1.149963914557901034640963 0.01675553670230148575748252 0.5501971263619315211101934
1.149963914557901034640963 -0.04976678819596941361069753 0.5501971263619315211101934
1.149773894071291824303671 -0.0499278291158021039763959 0.5501166059020151655190034
1.149773894071291824303671 0.04992782911580212479307761 0.5501166059020152765413059
1.149737808629192947762476 -0.01666666666666665602702935 0.5500721708841977974913107
1.149583873584682836010984 0.0162144548092504371672451 0.5500360854420988099278134
1.149583873584682836010984 0.04954778814258377350743245 0.5500360854420988099278134
1.19277980903952873781293 -0.001802664134197391743175132 0.5646521922267060400457694
1.196389904519764346702004 0.02431047823866454293817441 0.5684740980127049869707889
1.196389904519764346702004 -0.02791580650705932642452467 0.5684740980127049869707889
1.163248033759364474803988 -0.04265648631508407034873542 0.5538015580531691073318257
1.179853039063808894937324 -0.04277980903952859070837889 0.5611718979571815868467866
1.15019146257293347623829 -0.0498766772755554754770202 0.5502719830328497430116386
1.15019146257293347623829 0.049876677275555489354808 0.5502719830328497430116386
1.163248033759364474803988 0.04265648631508409116541714 0.5538015580531691073318257
1.179853039063808894937324 0.04277980903952860458616669 0.5611718979571814758244841
1.176174803735084317679593 -0.01654334394222214260627979 0.557281852322693671553111
1.163179893910875506435332 0.009446475706195271715426287 0.5537334182046801389631696
1.150123322724444507869634 -0.01650562574683395872243707 0.5502038431843607746429825
1.150061661362222320548199 0.01670438486205485725810682 0.5502227022820549429127368
1.150061661362222320548199 -0.04971563635572277817242792 0.5502227022820549429127368
1.249041000000087997534592 0.04628946232111977310275108 0.5972484623210316811992016
1.248082000000175995069185 -0.01666666666666666990481716 0.5971857311606481033550153
1.249041000000087997534592 0.01295612898778643502784025 0.5972484623210316811992016
1.236427766118274540474431 -0.006641801097136608780791001 0.5930695672154111530716136
1.225732532236284644255875 0.01474866666684291650890604 0.5890161344305581136993055
1.247429252625468887316629 -0.04808200000017624764492297 0.5965329837859409956024592
1.220720099451519491395857 -0.03805713443064619172506724 0.5847939018148911038963433
1.230762585958802279861857 -0.04808200000017624764492297 0.5881945872250371465383978
1.23577501874356721067727 0.03805713443064619172506724 0.5924168198407040453190575
1.220067352076812605687905 0.03997513443046994685570183 0.5841411544401839961437872
1.247429252625468887316629 0.04808200000017624764492297 0.5965329837859407735578543
1.205012432784764886406492 0.02150580362960588520770955 0.5765182364143709436987706
1.21002486556953003926651 -0.001802664134197389357930352 0.5807404690300379535017328
1.205012432784764886406492 -0.02511113189800066869405981 0.5765182364143709436987706
1.253177747169728295517643 -0.04643996503104466655464933 0.5996177122007730897479405
1.252162305283704535341371 -0.01387120729616512539161821 0.5992354244015462017003415
1.253177747169728295517643 0.018697550438714408832519 0.5996177122007730897479405
1.25178001748447753627147 -0.04923542440154621280257174 0.5987214433612448871713241
1.25178001748447753627147 0.04923542440154621280257174 0.5987214433612448871713241
1.250382287799226554980692 0.04744288672248973132150596 0.5978251745217166845947077
1.250764575598453554050593 0.01487412898761019015847484 0.5983391555620181101460275
1.250382287799226777025297 -0.01769462874726934753510932 0.5978251745217166845947077
0.7959460268240428071351289 0.01681520981609420720137571 0.620869182992051515945775
0.7918920536480853478167319 -0.0166666666666666664353702 0.6293536317320898021421272
0.795946026824042585090524 -0.01651812351723912913881165 0.6208691829920516269680775
0.7838381361003985414726003 0.0005588315712933058241121409 0.6418920536480852145899689
0.7798381917286691944468657 -0.02466655541012536048683934 0.6459460268240425628860635
0.7798381917286691944468657 0.02578421855271197105086145 0.6459460268240425628860635
0.790032393801846866132621 -0.04189205364808532700005017 0.6274939718858513204580163
0.7819784762541601708107919 -0.04189205364808532700005017 0.6400323938018468439281605
0.781978476254159948766187 0.04189205364808533393894407 0.6400323938018468439281605
0.790032393801846866132621 0.04189205364808533393894407 0.6274939718858513204580163
0.8064594145747845388427777 -0.0477030342533908482960392 0.6034362264651068619158991
0.8034362264651069285292806 -0.0477030342533908482960392 0.6075644712157779459005269
0.8034362264651069285292806 0.0477030342533908552349331 0.6075644712157780569228294
0.8064594145747845388427777 0.0477030342533908552349331 0.6034362264651069729382016
0.8071948590926597555395006 -0.04165665803403586359143773 0.6011484828733045793214274
0.8053201538562868577741938 -0.01062029044731167999604526 0.6022969657466091808473152
0.8071948590926597555395006 0.0204160771394125035993472 0.6011484828733046903437298
0.8022969657466092474606967 -0.008410177165324460302198162 0.606425210497280264831943
0.8011484828733046459348088 0.02262619042139972849736473 0.6094049723746467472906829
0.8011484828733046459348088 -0.03944654475204864563231411 0.6094049723746468583129854
1.291895527914538321923033 0.0009842954613441833901232858 0.6169299531494669697195832
1.295947763957268961121372 0.0262131567092158991594264 0.6217031981707415999593991
1.295947763957268961121372 -0.02424456578652753324654157 0.6217031981707415999593991
1.280678826975853112912773 -0.04189552791453838437307766 0.6128777171067362194989414
1.280678826975853112912773 0.04189552791453838437307766 0.6128777171067362194989414
1.276626590933122473714434 -0.01666666666666666990481716 0.6081044720854615892591255
1.265409889994437264704175 -0.02197567938162675593716244 0.6040522360427308390384837
1.265409889994437264704175 0.01135765395170658560719534 0.6040522360427308390384837
1.32598919639372869738736 -0.02052416789999101168207041 0.6465133642937195279642992
1.318224551756284945724929 0.005835894020781638887040987 0.6430267285874392557687429
1.32598919639372869738736 0.03219595594155429119087586 0.6465133642937195279642992
1.314737916050004340462465 -0.04302672858743931960656681 0.6386721786910583009699849
1.314737916050004340462465 0.04302672858743931960656681 0.6386721786910583009699849
1.303486635706280205582175 0.02734435738211684133180945 0.6308309930883970739756705
1.306973271412560588800034 0.0009842954613441833901232858 0.6351855429847780287744285
1.303486635706280205582175 -0.02537576645942846848003072 0.6308309930883970739756705
0.7575887251506883135476755 -0.04019669375449105852560194 0.697785418905179533055616
0.7571162342175751236439396 -0.01129252261079900787610342 0.6955708378103588884755482
0.7575887251506883135476755 0.01761164853289303583450121 0.697785418905179533055616
0.7694326490006910823638009 -0.04105548913839246472079481 0.6608198998817109703907136
0.7630344809765317037886234 -0.03662632694875117556065902 0.6752719854535570442877201
0.7612492975736617761839398 -0.04557083781035870667652787 0.6874663966894201116986096
0.7630344809765317037886234 0.03662632694875117556065902 0.6752719854535570442877201
0.7612492975736617761839398 0.04557083781035871361542178 0.6874663966894201116986096
0.7694326490006910823638009 0.04105548913839246472079481 0.6608198998817109703907136
0.7716977536687636973766757 -0.02382999090043249126869007 0.6544722554308036732706455
0.7675572599805875473322203 0.0005588315712933115703836551 0.658944510861607435359133
0.7716977536687636973766757 0.02494765404301910530215913 0.6544722554308036732706455
0.7611590919564281687570428 0.01223750447702538768357527 0.673396596433453620278442
0.7589014176204449402263208 -0.007722155805059126645883971 0.6833764265744959320869611
1.34682185467502724129929 -0.008506270676687594650688951 0.6572583433199624680653983
1.348410927337513776080868 0.02164891733167274151528048 0.6597494686524654206039031
1.348410927337513776080868 -0.03866145868504793081665838 0.6597494686524654206039031
1.342995541014571303506386 -0.04682185467502700260133963 0.6556692706574760443061223
1.342995541014571081461781 0.04682185467502701647912744 0.6556692706574760443061223
1.341406468352084546680203 -0.01666666666666666296592325 0.653178145324972980745315
1.337580154691628608887299 0.002657748695808650422206521 0.6515890726624864459637365
1.337580154691628608887299 0.03599108202914198806343649 0.6515890726624864459637365
1.387013913015397337247236 -0.006489312661285382040354808 0.6935032256766828773208999
1.378252117992674552482413 0.01385047202541354188776168 0.6870064513533655770061159
1.387013913015397337247236 0.03419025671211246147906948 0.693503225676682655276295
1.371755343669357474212234 -0.03700645135336558255723105 0.6809167570050056461639088
1.371755343669357474212234 0.03700645135336559643501886 0.6809167570050054241193038
1.356496774323317611177231 0.01183351401001132320589537 0.6683302883333284150069176
1.362993548646634467402805 -0.008506270676687598120135902 0.6744199826816883458491247
1.356496774323317389132626 -0.0288460553633865177114437 0.6683302883333284150069176
0.7516840035500558236947199 -0.04796508866398069281800076 0.7496490922140364165926485
0.7513683634539731759360848 -0.01533357090257455798698594 0.749298184428072833185297
0.7516840035500558236947199 0.01729794685883157684402889 0.7496490922140364165926485
0.7563384621997262247106164 -0.04749076753022590802189029 0.7036513901717924568401941
0.7540022979577560846564666 -0.04678895195829869957382385 0.7199671490524954808876146
0.7534142296049151088510598 -0.04929818442807280126638503 0.7353791994842751034155981
0.7540022979577560846564666 0.04678895195829869263492995 0.7199671490524954808876146
0.7534142296049149978287574 0.04929818442807280126638503 0.7353791994842749923932956
0.7563384621997262247106164 0.04749076753022589414410248 0.7036513901717924568401941
0.7566287602907548759390011 -0.04211662347435824599317655 0.7012546162348871625624724
0.7551963044977079153596833 -0.01129252261079901134555037 0.7025092324697741474892609
0.7566287602907548759390011 0.01953157825276022330207581 0.7012546162348871625624724
0.7528601402557377753055334 0.01596485109473946145675072 0.7188249913504771715366815
0.751956431806814262763794 -0.01415743419689256474280903 0.7338861339962932106573135
1.399004845569483013179024 -0.01401099996364430291806435 0.7023229877820279520861391
1.399502422784741684225196 0.01832717893917235746359395 0.7031532439182807125988006
1.399502422784741684225196 -0.04634917886646096329972266 0.7031532439182807125988006
1.398094325464115161850032 -0.04900484556948332681702851 0.7018254105667695030845721
1.398094325464115161850032 0.04900484556948332681702851 0.7018254105667695030845721
1.397596748248856712848465 -0.0166666666666666664353702 0.7009951544305167425719105
1.396686228143488417430262 0.0128553175948968607250622 0.700497577215258404592646
1.396686228143488417430262 0.04618865092823019879997304 0.700497577215258404592646
1.436020055518040461350893 -0.006269285439146699348555991 0.7422893409571871270458132
1.429576016323239606720108 0.01164272980856085638878827 0.7345786819143743651139289
1.436020055518040239306288 0.02955474505626841733030297 0.7422893409571871270458132
1.421865357280426511721316 -0.03457868191437422217271447 0.7269505076420316180829673
1.421865357280426511721316 0.03457868191437422217271447 0.7269505076420316180829673
1.40771065904281300618095 0.003901015284063254987684255 0.7116116743268762201424238
1.415421318085625657090532 -0.01401099996364430291806435 0.7192398485992189671733854
1.40771065904281300618095 -0.03192301521135185865540862 0.7116116743268762201424238
0.7559917981098251971161517 -0.04287844465799420246021612 0.7988702427678193718207922
0.7546905349031833853956641 -0.01180462578902189210716678 0.7977404855356389212772683
0.7559917981098253081384541 0.01926919307995041824588256 0.7988702427678195938653971
0.7517555869778669297431861 -0.04931286191799195278706591 0.7510890390958208095995019
0.7522187963280013711653282 -0.04705334745363091986103399 0.7666259485303070775330525
0.754306247725819667415692 -0.04774048553563896291063173 0.7829490461559697189741769
0.7522187963280011491207233 0.0470533474536309406777157 0.7666259485303070775330525
0.754306247725819667415692 0.04774048553563898372731344 0.7829490461559697189741769
0.7517555869778669297431861 0.04931286191799195972595982 0.7510890390958208095995019
0.7516766648050960952787136 -0.04797976615389985127757555 0.7503435690410038549913452
0.7513536859640540521709795 -0.01533357090257455798698594 0.7506871380820079320272953
0.7516766648050960952787136 0.01731262434875073530360368 0.7503435690410038549913452
0.7518168953141884935931216 0.01440715220230564565240261 0.7662240475164940889385434
0.7526030835053649781229979 -0.01597952858465861991632551 0.7814173879099763908584464
1.448068608162782933135304 -0.009970410694347928842740103 0.7552795198233763773743021
1.449034304081391555385494 0.02143153080176811789425706 0.7576619518909272210649419
1.449034304081391555385494 -0.04137235219046398598807812 0.7576619518909272210649419
1.446522335652338675515693 -0.04806860816278271664181432 0.7543138239047678661464147
1.446522335652338675515693 0.04806860816278273051960213 0.7543138239047678661464147
1.445556639733730053265504 -0.0166666666666666525575824 0.7519313918372172445003798
1.444010367223285573601288 0.009711337971343582398109362 0.7509656959186085112278874
1.444010367223285573601288 0.04304467130467691526884977 0.7509656959186085112278874
1.471726120786972069609533 -0.02383541637411423080861184 0.795561537161086462788262
1.467520754651856496053597 0.0006209912813917907187938328 0.7911230743221727701453005
1.471726120786972069609533 0.02507739893689781354724211 0.795561537161086462788262
1.463082291812942914432938 -0.0411230743221726868785737 0.7822429984805788771851098
1.463082291812942914432938 0.0411230743221726938174676 0.7822429984805789882074123
1.454438462838913759256343 0.01448599696115808119212254 0.7689244598000716246488651
1.458876925677827340877002 -0.009970410694347940985804435 0.7778045356416651845421484
1.454438462838913759256343 -0.0344268183498539562248375 0.7689244598000716246488651
0.770803613488449723689655 -0.02498421264861368576437606 0.8457878261370632699822636
0.7667200675386297570312877 -7.522704115349790332523128e-05 0.8415756522741266731912901
0.770803613488449723689655 0.0248337585663066968966195 0.8457878261370633810045661
0.7581089953255766289430539 -0.04615430439262409312295432 0.8056779748867541890433586
0.7598901487496908524477135 -0.03772995666675095505215864 0.8181324676904841997071571
0.7662630207587595165819039 -0.04157565227412685082697408 0.8328762865534629078467788
0.7598901487496908524477135 0.03772995666675096892994645 0.8181324676904841997071571
0.7662630207587595165819039 0.04157565227412686470476189 0.8328762865534630188690812
0.7581089953255766289430539 0.04615430439262412087852994 0.805677974886754300065661
0.7567848886813326458877782 -0.0412922635149793326725387 0.8019228478036879437240714
0.7562767160461982829389171 -0.01180462578902188863771983 0.8038456956073758430392218
0.7567848886813327569100807 0.01768301193693555539709905 0.8019228478036879437240714
0.7580578694703123954212742 0.008242318940793528364574527 0.8163001884111059647253228
0.7603471955295609818747948 -0.01282097105929076892583129 0.8268318334111479650516685
1.490194323730069658751063 0.0128710883245908309230332 0.8226767645945214368907727
1.49225047810847777363108 -0.008758779567774176155747767 0.8334916985407039291544606
1.493588608024924102579689 0.01143503940066724518243024 0.8462044216579240885067748
1.492870583562962538692886 -0.01810271559059026258431402 0.8481022108289621996846108
1.492870583562962538692886 0.04097279439192475641862146 0.8481022108289619776400059
1.490271054285362994917818 -0.03829653455903168912666246 0.8315122747175891504411993
1.484146005763763653817477 -0.04209211290110751596538208 0.8167433972219602100750535
1.491609184201809767955638 -0.04620442165792418287573184 0.8442249978348095318381183
1.491609184201809767955638 0.04620442165792418287573184 0.8442249978348093097935134
1.486125429586878432530739 0.03829653455903167524887465 0.8187228210450749887883148
1.486202160142171990742099 0.04620442165792418287573184 0.8275583311681427023387414
1.484069275208470095606117 -0.01666666666666667684371106 0.8079078870988924965246269
1.480000381065278647341188 -0.007286895817500711053371631 0.803953943549446270466774
1.480000381065278647341188 0.02604643751583262528681573 0.803953943549446270466774
0.7914326221632845825837421 0.009083166079783011950810057 0.8714422942099401270255044
0.795716311081642424518634 0.03384912157640090207832984 0.8800335216648071945400034
0.7957163110816423134963316 -0.01568278941683487123781582 0.8800335216648071945400034
0.7873453642277322694909003 -0.04143262216328455482816651 0.8671586052915822850906125
0.7873453642277322694909003 0.04143262216328456176706041 0.8671586052915825071352174
0.7830616753093744275560084 -0.01666666666666666990481716 0.8585673778367153285984159
0.7789744173738221144631666 -0.008642604877868949320163239 0.8542836889183577087081289
0.7789744173738221144631666 0.02469072845546439048947107 0.8542836889183577087081289
0.8067574644859345500691461 -0.04216428819940669370236463 0.8989217526853410245024634
0.8049961032149555162362731 -0.01098744949539089479917386 0.8978435053706823598673736
0.8067574644859345500691461 0.02018938920862490757346386 0.8989217526853410245024634
0.8039178559002967405788809 -0.04784350537068247227745488 0.8951300023918992154747798
0.8039178559002968516011833 0.04784350537068247227745488 0.8951300023918992154747798
0.8010782473146589310886156 0.04026000478379881952761821 0.8913382520984574064470962
0.8021564946293177067460078 0.009083166079783010216086581 0.8940517550772404398173876
0.8010782473146589310886156 -0.02209367262423278868710419 0.8913382520984574064470962
1.495793652178585730894156 0.01350171707465704432071796 0.8677080648960713293860181
1.495523113895285582941597 -0.01404279364125710950761405 0.8814803202540284488009092
1.493553377496220413434003 0.01010332084312695957728501 0.896835050407990275189718
1.491854179380455391878968 -0.02006506289819675464825011 0.8984175252039952042082405
1.491854179380455391878968 0.04027170458445067380282012 0.8984175252039952042082405
1.493949986980283028970007 -0.04421117738258082546787264 0.8799071933390261168739244
1.492916648143288060879286 -0.04737612697459045452141879 0.8648230014683642163930699
1.491980250581217859462413 -0.04683505040799038759979922 0.8952619234929880542850356
1.491980250581218081507018 0.04683505040799038759979922 0.8952619234929879432627331
1.494489775058290614850875 0.04421117738258082546787264 0.8663961283833666593423573
1.492646109859988357015936 0.04683505040799038759979922 0.8785952568263211137633562
1.494760313341590762803435 -0.01666666666666666990481716 0.8526238730254096509497685
1.493456436221295868804759 0.008811166375257684785227141 0.8513119365127047588615028
1.493456436221295868804759 0.0421444997085910280643084 0.8513119365127047588615028
0.8355512530923876468591516 0.01104124203054327769957244 0.9283027012562172775034242
0.8427756265461937568161943 0.02992582845626417034634592 0.9349322821510162029312596
0.8427756265461937568161943 -0.00784334439517761494720105 0.9349322821510162029312596
0.8289485684651651808962924 -0.03555125309238756081686716 0.9210783278024111675463814
0.8289485684651651808962924 0.03555125309238755387797326 0.9210783278024111675463814
0.8217241950113588488946448 -0.01666666666666666990481716 0.9144487469076123531408484
0.8151215103841362719094832 -0.02543619640300333675786426 0.9072243734538061321615032
0.8151215103841362719094832 0.007897136930329999582323097 0.9072243734538061321615032
0.8584759950544029738495055 -0.04045599201373283049232299 0.9489319870681358626285373
0.8558400169249976707774863 -0.009258684544127560381299169 0.9478639741362719917106006
0.8584759950544031958941105 0.0219386229254777131991716 0.9489319870681358626285373
0.8547720039931335778149446 -0.04786397413627194175056445 0.9461192747500742905586435
0.8547720039931336888372471 0.04786397413627192787277664 0.9461192747500742905586435
0.8510680129318641817803837 0.04223854950014854781059626 0.9433065624320124964441447
0.8521360258637280526983204 0.01104124203054327249540201 0.9450512618182101975961018
0.8510680129318641817803837 -0.02015606543906199241145139 0.9433065624320124964441447
1.489102134189187243151764 0.006399345053256256035667526 0.9172972108640685684477489
1.486850575884535619053395 -0.01090246166255950249768247 0.9259481142219764260303805
1.478594343462480198425624 -0.005610003181551186102193896 0.9397326783865893595759644
1.472589669345076623940827 -0.02867601490147410683850815 0.9448663391932945465612192
1.472589669345076845985432 0.01745600853837172769522645 0.9448663391932946575835217
1.484874041950126732913873 -0.03396847338248241976454977 0.923971580287567206823951
1.48672602984506196932557 -0.04423579499589284230731678 0.9124385744276058973767363
1.476617809528071312286102 -0.03973267838658958023279055 0.9377561444521802513918374
1.476617809528071312286102 0.03973267838658958717168446 0.9377561444521802513918374
1.488702563779471077509697 0.03396847338248243364233758 0.9144151083620150055608633
1.484474471540410123182596 0.03973267838658958717168446 0.9210894777855136439370654
1.490954122084122923652671 -0.0166666666666666664353702 0.9057642050041071479782318
1.490554551674406535966 0.004339115839019799976405967 0.9028821025020535850913461
1.490554551674406535966 0.03767244917235313544923159 0.9028821025020535850913461
0.8912905532743800041117765 0.0003942610129339732538689134 0.9672399105654201356685462