/*--------------------------------*- C++ -*----------------------------------*\
| =========                 |                                                 |
| \\      /  F ield         | OpenFOAM: The Open Source CFD Toolbox           |
|  \\    /   O peration     | Version:  v2012                                 |
|   \\  /    A nd           | Website:  www.openfoam.com                      |
|    \\/     M anipulation  |                                                 |
\*---------------------------------------------------------------------------*/
FoamFile
{
    version     2.0;
    format      ascii;
    class       volScalarField;
    location    "1.2";
    object      alpha.water;
}
// * * * * * * * * * * * * * * * * * * * * * * * * * * * * * * * * * * * * * //

dimensions      [0 0 0 0 0 0 0];


internalField   nonuniform List<scalar> 
96000
(
0
0
0
0
0
0
0
0
0
0
0
0
0
0
0
0
0
0
0
0
0
0
0
0
0
0
0
0
0
0
0
0
0
0
0
0
0
0
0
0
0
0
0
0
0
0
0
0
0
0
0
0
0
0
0
0
0
0
0
0
0
0
0
0
0
0
0
0
0
0
0
0
0
0
0
0
0
0
0
0
0
0
0
0
0
0
0
0
0
0
0
0
0
0
0
0
0
0
0
0
0
0
0
0
0
0
0
0
0
0
0
0
0
0
0
0
0
0
0
0
0
0
0
0
0
0
0
0
0
0
0
0
0
0
0
0
0
0
0
0
0
0
0
0
0
0
0
0
0
0
0
0
0
0
0
0
0
0
0
0
0
0
0
0
0
0
0
0
0
0
0
0
0
0
0
0
0
0
0
0
0
0
0
0
0
0
0
0
0
0
0
0
0
0
0
0
0
0
0
0
0
0
0
0
0
0
0
0
0
0
0
0
0
0
0
0
0
0
0
0
0
0
0
0
0
0
0
0
0
0
0
0
0
0
0
0
0
0
0
0
0
0
0
0
0
0
0
0
0
0
0
0
0
0
0
0
0
0
0
0
0
0
0
0
0
0
0
0
0
0
0
0
0
0
0
0
0
0
0
0
0
0
0
0
0
0
0
0
0
0
0
0
0
0
0
0
0
0
0
0
0
0
0
0
0
0
0
0
0
0
0
0
0
0
0
0
0
0
0
0
0
0
0
0
0
0
0
0
0
0
0
0
0
0
0
0
0
0
0
0
0
0
0
0
0
0
0
0
0
0
0
0
0
0
0
0
0
0
0
0
0
0
0
0
0
0
0
0
0
0
0
0
0
0
0
0
0
0
0
0
0
0
0
0
0
0
0
0
0
0
0
0
0
0
0
0
0
0
0
0
0
0
0
0
0
0
0
0
0
0
0
0
0
0
0
0
0
0
0
0
0
0
0
0
0
0
0
0
0
0
0
0
0
0
0
0
0
0
0
0
0
0
0
0
0
0
0
0
0
0
0
0
0
0
0
0
0
0
0
0
0
0
0
0
0
0
0
0
0
0
0
0
0
0
0
0
0
0
0
0
0
0
0
0
0
0
0
0
0
0
0
0
0
0
0
0
0
0
0
0
0
0
0
0
0
0
0
0
0
0
0
0
0
0
0
0
0
0
0
0
0
0
0
0
0
0
0
0
0
0
0
0
0
0
0
0
0
0
0
0
0
0
0
0
0
0
0
0
0
0
0
0
0
0
0
0
0
0
0
0
0
0
0
0
0
0
0
0
0
0
0
0
0
0
0
0
0
0
0
0
0
0
0
0
0
0
0
0
0
0
0
0
0
0
0
0
0
0
0
0
0
0
0
0
0
0
0
0
0
0
0
0
0
0
0
0
0
0
0
0
0
0
0
0
0
0
0
0
0
0
0
0
0
0
0
0
0
0
0
0
0
0
0
0
0
0
0
0
0
0
0
0
0
0
0
0
0
0
0
0
0
0
0
0
0
0
0
0
0
0
0
0
0
0
0
0
0
0
0
0
0
0
0
0
0
0
0
0
0
0
0
0
0
0
0
0
0
0
0
0
0
0
0
0
0
0
0
0
0
0
0
0
0
0
0
0
0
0
0
0
0
0
0
0
0
0
0
0
0
0
0
0
0
0
0
0
0
0
0
0
0
0
0
0
0
0
0
0
0
0
0
0
0
0
0
0
0
0
0
0
0
0
0
0
0
0
0
0
0
0
0
0
0
0
0
0
0
0
0
0
0
0
0
0
0
0
0
0
0
0
0
0
0
0
0
0
0
0
0
0
0
0
0
0
0
0
0
0
0
0
0
0
0
0
0
0
0
0
0
0
0
0
0
0
0
0
0
0
0
0
0
0
0
0
0
0
0
0
0
0
0
0
0
0
0
0
0
0
0
0
0
0
0
0
0
0
0
0
0
0
0
0
0
0
0
0
0
0
0
0
0
0
0
0
0
0
0
0
0
0
0
0
0
0
0
0
0
0
0
0
0
0
0
0
0
0
0
0
0
0
0
0
0
0
0
0
0
0
0
0
0
0
0
0
0
0
0
0
0
0
0
0
0
0
0
0
0
0
0
0
0
0
0
0
0
0
0
0
0
0
0
0
0
0
0
0
0
0
0
0
0
0
0
0
0
0
0
0
0
0
0
0
0
0
0
0
0
0
0
0
0
0
0
0
0
0
0
0
0
0
0
0
0
0
0
0
0
0
0
0
0
0
0
0
0
0
0
0
0
0
0
0
0
0
0
0
0
0
0
0
0
0
0
0
0
0
0
0
0
0
0
0
0
0
0
0
0
0
0
0
0
0
0
0
0
0
0
0
0
0
0
0
0
0
0
0
0
0
0
0
0
0
0
0
0
0
0
0
0
0
0
0
0
0
0
0
0
0
0
0
0
0
0
0
0
0
0
0
0
0
0
0
0
0
0
0
0
0
0
0
0
0
0
0
0
0
0
0
0
0
0
0
0
0
0
0
0
0
0
0
0
0
0
0
0
0
0
0
0
0
0
0
0
0
0
0
0
0
0
0
0
0
0
0
0
0
0
0
0
0
0
0
0
0
0
0
0
0
0
0
0
0
0
0
0
0
0
0
0
0
0
0
0
0
0
0
0
0
0
0
0
0
0
0
0
0
0
0
0
0
0
0
0
0
0
0
0
0
0
0
0
0
0
0
0
0
0
0
0
0
0
0
0
0
0
0
0
0
0
0
0
0
0
0
0
0
0
0
0
0
0
0
0
0
0
0
0
0
0
0
0
0
0
0
0
0
0
0
0
0
0
0
0
0
0
0
0
0
0
0
0
0
0
0
0
0
0
0
0
0
0
0
0
0
0
0
0
0
0
0
0
0
0
0
0
0
0
0
0
0
0
0
0
0
0
0
0
0
0
0
0
0
0
0
0
0
0
0
0
0
0
0
0
0
0
0
0
0
0
0
0
0
0
0
0
0
0
0
0
0
0
0
0
0
0
0
0
0
0
0
0
0
0
0
0
0
0
0
0
0
0
0
0
0
0
0
0
0
0
0
0
0
0
0
0
0
0
0
0
0
0
0
0
0
0
0
0
0
0
0
0
0
0
0
0
0
0
0
0
0
0
0
0
0
0
0
0
0
0
0
0
0
0
0
0
0
0
0
0
0
0
0
0
0
0
0
0
0
0
0
0
0
0
0
0
0
0
0
0
0
0
0
0
0
0
0
0
0
0
0
0
0
0
0
0
0
0
0
0
0
0
0
0
0
0
0
0
0
0
0
0
0
0
0
0
0
0
0
0
0
0
0
0
0
0
0
0
0
0
0
0
0
0
0
0
0
0
0
0
0
0
0
0
0
0
0
0
0
0
0
0
0
0
0
0
0
0
0
0
0
0
0
0
0
0
0
0
0
0
0
0
0
0
0
0
0
0
0
0
0
0
0
0
0
0
0
0
0
0
0
0
0
0
0
0
0
0
0
0
0
0
0
0
0
0
0
0
0
0
0
0
0
0
0
0
0
0
0
0
0
0
0
0
0
0
0
0
0
0
0
0
0
0
0
0
0
0
0
0
0
0
0
0
0
0
0
0
0
0
0
0
0
0
0
0
0
0
0
0
0
0
0
0
0
0
0
0
0
0
0
0
0
0
0
0
0
0
0
0
0
0
0
0
0
0
0
0
0
0
0
0
0
0
0
0
0
0
0
0
0
0
0
0
0
0
0
0
0
0
0
0
0
0
0
0
0
0
0
0
0
0
0
0
0
0
0
0
0
0
0
0
0
0
0
0
0
0
0
0
0
0
0
0
0
0
0
0
0
0
0
0
0
0
0
0
0
0
0
0
0
0
0
0
0
0
0
0
0
0
0
0
0
0
0
0
0
0
0
0
0
0
0
0
0
0
0
0
0
0
0
0
0
0
0
0
0
0
0
0
0
0
0
0
0
0
0
0
0
0
0
0
0
0
0
0
0
0
0
0
0
0
0
0
0
0
0
0
0
0
0
0
0
0
0
0
0
0
0
0
0
0
0
0
0
0
0
0
0
0
0
0
0
0
0
0
0
0
0
0
0
0
0
0
0
0
0
0
0
0
0
0
0
0
0
0
0
0
0
0
0
0
0
0
0
0
0
0
0
0
0
0
0
0
0
0
0
0
0
0
0
0
0
0
0
0
0
0
0
0
0
0
0
0
0
0
0
0
0
0
0
0
0
0
0
0
0
0
0
0
0
0
0
0
0
0
0
0
0
0
0
0
0
0
0
0
0
0
0
0
0
0
0
0
0
0
0
0
0
0
0
0
0
0
0
0
0
0
0
0
0
0
0
0
0
0
0
0
0
0
0
0
0
0
0
0
0
0
0
0
0
0
0
0
0
0
0
0
0
0
0
0
0
0
0
0
0
0
0
0
0
0
0
0
0
0
0
0
0
0
0
0
0
0
0
0
0
0
0
0
0
0
0
0
0
0
0
0
0
0
0
0
0
0
0
0
0
0
0
0
0
0
0
0
0
0
0
0
0
0
0
0
0
0
0
0
0
0
-4.927414142080189653928743e-44
-9.503047363100124872266795e-32
-2.442678490804865483130004e-30
-3.127361959575416376285113e-29
-2.659207413788624778138699e-28
-1.689481758608035277623646e-27
-8.5550254191373040024893e-27
-3.59661080627656567672211e-26
-1.291255826239282012398096e-25
-4.041472503348049514082576e-25
-1.120265393209367070483377e-24
-2.784558691279525258824163e-24
-6.269242342306881662496648e-24
-6.416600092381458933029964e-24
-6.533086417552829296318737e-24
-6.61583000140751764365264e-24
-6.662382809226938937722508e-24
-6.670812975272032605126038e-24
-6.639789889480015257277907e-24
-6.568657299524348815532118e-24
-6.457490292604858525342522e-24
-6.307132308677557251927312e-24
-6.11920888239303715267315e-24
-5.896115617980665775594379e-24
-5.640978953322219054684134e-24
-5.357589528278371709569724e-24
-5.050309377271642375029159e-24
-4.723955635625464075496454e-24
-4.383664884822946266433344e-24
-4.034743555080745706097461e-24
-3.682510844480551546408569e-24
-3.332141301577934719314746e-24
-2.988514472436774239767745e-24
-2.656078783733562279482753e-24
-2.338736110431377995687903e-24
-2.039752293092168438589625e-24
-1.761697304018978511361333e-24
-1.506416930255256620954347e-24
-1.275035891351047574879364e-24
-1.067990401876310783622559e-24
-8.850864818640310187567442e-25
-7.255789520100708724779459e-25
-5.882651287328275519152395e-25
-4.715868148934420563022846e-25
-3.737342710507525250365621e-25
-2.927464049076775974629743e-25
-2.266023453873716063257803e-25
-1.7330075450366037625604e-25
-1.309245422249603743533371e-25
-9.768995607122045342033878e-26
-7.198020392848794442618267e-26
-5.236474872654614456462575e-26
-3.760613409600865961990273e-26
-2.665664253441076855424624e-26
-1.864726481710966696287423e-26
-1.287140855122599463003643e-26
-8.765547595556556235110835e-27
-5.888671732076201559856643e-27
-3.901995064847310898387758e-27
-2.549972015261895278233005e-27
-1.64328986751175526202015e-27
-1.044182059397423407810702e-27
-6.541498790040432682122098e-28
-4.039945122601955107429188e-28
-2.459412980337306150590623e-28
-1.475734818566055612869428e-28
-8.72713205837182162358114e-29
-5.086148222287619720283996e-29
-2.920995932640333643518334e-29
-1.652988804776929651527508e-29
-9.216811358739362354104757e-30
-5.063377693696577009847276e-30
-2.740488238348901634947312e-30
-1.198305437670253339425832e-30
-5.037987026665127567697828e-31
-2.039631281249385981341229e-31
-7.962395790711275951147568e-32
-3.001038893722049435121239e-32
-1.093267809915435689190973e-32
-3.853530186932661380083005e-33
-1.315473760945782911690754e-33
-4.352899476100733310852239e-34
-1.397337205073740693063978e-34
-4.354891208062129622365022e-35
-1.318593829139096816326386e-35
-3.881373960387880153033217e-36
-1.111385047475263520861605e-36
-3.097380464633901045856685e-37
-8.406315525003305554190937e-38
-2.222865631606466806398843e-38
-5.729524083948695166847279e-39
-1.440158242167879179494311e-39
-3.531544007804061710900822e-40
-8.451753011657957856835766e-41
-1.974744760084588462989085e-41
-4.506102786118692838541519e-42
-1.004503060554332243791404e-42
-2.188195198771484784469123e-43
-4.659301398788753704367865e-44
-9.699776663989987761530487e-45
-1.974722596416935070481808e-45
-3.93225919989031207871384e-46
-7.660357031684652232998091e-47
-1.460146933876491465957586e-47
-2.723610338404195864423141e-48
-4.972150825772606846846927e-49
-8.884515371517989272909513e-50
-1.553963541945515705909141e-50
-2.660603483578662497713292e-51
-4.459148487646391188145863e-52
-7.315432030987359550066708e-53
-1.174651841054076024662278e-53
-1.845874095353596001896526e-54
-2.838145272257096019372368e-55
-4.2686464085713363853636e-56
-6.277861356611205312967199e-57
-9.023831483987210553535471e-58
-1.266932158369867609141156e-58
-1.73594659483224584242459e-59
-2.318770951160651569312816e-60
-3.014866339881124957585183e-61
-3.807798923841339855747877e-62
-4.658165828612000927815664e-63
-5.495980708629558929597439e-64
-6.213365699292288595217748e-65
-6.658710881008332680558864e-66
-6.633702255433722811228609e-67
-5.894710781190940083279428e-68
-4.159907867351027651083781e-69
-1.123076547028135224532077e-70
3.52559056915457873167113e-71
1.007233696324407584522085e-71
1.874803038359783692487346e-72
2.969445860586582745608984e-73
4.293237774103261345405098e-74
5.833546252932112154700002e-75
7.561428014553002443787759e-76
9.431376098977751765797567e-77
1.138263819904028060837415e-77
1.334215307628096478179003e-78
1.522895046520881320438111e-79
1.695966097657931767955076e-80
1.845461759624665586459043e-81
1.964392735719057009113719e-82
2.047286964688474138567271e-83
2.090604260679381050575931e-84
2.092982307777905904357228e-85
2.055290737105724636643836e-86
1.980492933914901905089802e-87
1.873337455609101152026607e-88
1.739919299060486360702836e-89
1.587163321614321450547751e-90
1.422286622773834565165613e-91
1.252293636664860255394839e-92
1.083548237186064089019933e-93
9.214533383468254968338225e-95
7.702527218788407995056052e-96
6.32954548821256836801817e-97
5.113631961450305825741517e-98
4.061970108050044966077783e-99
3.17264824222511363366744e-100
2.43673430812949941117754e-101
1.840409608644646026980465e-102
1.366961007752237921376569e-103
9.984927200907005351846955e-105
7.172812254013473131099125e-106
5.067520309002812868713334e-107
3.520999277338470763450648e-108
2.406030430080993552262765e-109
1.616958705732324985199934e-110
1.068697876852527663569692e-111
6.946443833595934115502604e-113
4.440306181222636839709484e-114
2.791228066012523622712258e-115
1.725428587514261036510209e-116
1.048825546650649622550802e-117
6.268990566503382931689934e-119
3.684357370684701678029214e-120
2.128999524717861373215944e-121
1.209531635752881999862742e-122
6.755588711764273784380641e-124
3.709268081276636945216122e-125
2.002005919419756977634661e-126
1.062101416422717750111882e-127
5.538087583668875363728368e-129
2.838016256688268954381936e-130
1.429214808424232912613159e-131
7.072490177653530728344162e-133
3.438763868397975065259313e-134
1.642663949319927603938771e-135
7.708518712251224927270503e-137
3.553257328772512575560992e-138
1.608687923442126072631309e-139
7.152541795199352249332412e-141
3.122803404342299877402991e-142
1.338673853579053896619921e-143
5.633770007626521174073151e-145
2.327361946939717558173655e-146
9.436554480754353056150081e-148
3.754825694335985893865879e-149
1.465996159577669354314598e-150
5.615394443479507324192196e-152
2.109926968473212266723298e-153
7.775480403977104837912117e-155
2.809895300945813551190722e-156
9.955979970920161710092895e-158
3.458072224081417519225206e-159
1.177233741805002557249492e-160
3.927258478923589844406186e-162
1.283603708848068659899155e-163
4.109609553632199536072379e-165
1.288571316537491568362615e-166
3.956046962930168248645579e-168
1.188947661794272821303888e-169
3.497130898742480049921081e-171
1.006478604529496163030742e-172
2.833559300027909831267051e-174
7.801578749569636974886067e-176
2.10009035189365398908321e-177
5.525567849976215778868826e-179
1.420602332520050115726367e-180
3.567736845892657227496256e-182
8.749844006714582058030832e-184
2.094844280700072677480931e-185
4.894380500743035864287923e-187
1.115532938194496898755817e-188
2.479379629947103021919441e-190
5.371673708323385367379787e-192
1.133977567609588546278383e-193
2.331533230307584204229349e-195
4.666877266277351480472376e-197
9.089809068593542878889471e-199
1.721919237447938967058782e-200
3.170850721227982442929782e-202
5.672934404944039088695627e-204
9.855084702373175099180518e-206
1.66139194796155097420229e-207
2.716234675863140537723062e-209
4.303827986564143159998628e-211
6.604308500723025091389547e-213
9.80751678537765553524599e-215
1.40833163981663592893842e-216
1.953883303382703322103648e-218
2.616679534762111418309881e-220
3.379447340008607117223714e-222
4.204759331635169761819684e-224
5.034580110392544239123463e-226
5.794345503354463528308423e-228
6.402052536855058350056195e-230
6.781418734637145125049986e-232
6.876608294296787823115061e-234
6.664901601232633993578171e-236
6.163579089490956602787013e-238
5.428487464050811300996363e-240
4.544034743590194680125203e-242
3.606981642977691184614632e-244
2.708363774653716411375038e-246
1.918379164518839189652629e-248
1.277885800010553353639414e-250
7.977789971270875257651136e-253
4.649587532967388530287874e-255
2.518610819320728223156989e-257
1.261563196569024796830474e-259
5.80883096212426848270272e-262
2.441639940214181107612793e-264
9.291616847844328158836818e-267
3.169280252454409599838199e-269
9.569787034847703152875163e-272
2.518165782195789422361419e-274
5.656651688641777138515427e-277
1.05463119127249151758706e-279
1.566702178784586785156579e-282
1.738583417321465085170495e-285
1.281098716850379557676119e-288
4.701279694864012387352194e-292
0
0
0
0
0
0
0
0
0
0
0
0
0
0
0
0
0
0
0
0
0
0
0
0
0
0
0
0
0
0
0
0
0
0
0
0
0
0
0
0
0
0
0
0
0
0
0
0
0
0
0
0
0
0
0
0
0
0
0
0
0
0
0
0
0
0
0
0
0
0
0
0
0
0
0
0
0
0
0
0
0
0
0
0
0
0
0
0
0
0
0
0
0
0
0
0
0
0
0
0
0
0
0
0
0
0
0
0
0
0
0
0
0
0
0
0
0
0
0
0
0
0
0
0
-2.153451168776462291189847e-29
-5.578467329083183767287466e-28
-7.194609465448447196025451e-27
-6.159299646088114237738975e-26
-3.937499346200918940570913e-25
-2.004861994507487130032939e-24
-8.469026963467783168153035e-24
-3.05269913726975951233047e-23
-9.584585892813227338791485e-23
-2.662712385661465592677915e-22
-6.626982449282532629854212e-22
-1.492443182426772020180146e-21
-3.066622211671616613716874e-21
-5.789174975835674955408282e-21
-5.673555452678698111073522e-21
-5.527770943261476256266794e-21
-5.353364487013794981577503e-21
-5.152399954570141664906058e-21
-4.92742776002965897401662e-21
-4.6814342633802133686758e-21
-4.417775868795865676640913e-21
-4.140099590465027872093116e-21
-3.852252593717010747096594e-21
-3.558183876614228243466307e-21
-3.261841786910034652522795e-21
-2.96707142628620159438383e-21
-2.677516141160423408662133e-21
-2.396527212384250341608016e-21
-2.127085525804211870945687e-21
-1.871738440964316499941669e-21
-1.632554304185303976589452e-21
-1.411096120923978137019135e-21
-1.208414872006518329392439e-21
-1.025061900967210401870814e-21
-8.611187917387290973423441e-22
-7.162422712670648329505026e-22
-5.897209745637753788661293e-22
-4.805404485039161204221867e-22
-3.874525726296781864314786e-22
-3.09045644005546650834921e-22
-2.438116887850569781094068e-22
-1.902080845094145928019909e-22
-1.467112470716778827998788e-22
-1.118608881117099249884532e-22
-8.429411375539252127776113e-23
-6.276935079188338113626894e-23
-4.618069977641755701863965e-23
-3.356379008264245092642858e-23
-2.409453127953801280890367e-23
-1.708231744702033668693692e-23
-1.195926026432317896842066e-23
-8.266928165765562701705703e-24
-5.641884377039170965360948e-24
-3.801079966678119770643764e-24
-2.527900817516672404729862e-24
-1.659416198605428677459244e-24
-1.075151117251571506903791e-24
-6.875172000553988923902669e-25
-4.338929530247839908159368e-25
-2.702436629042342994178555e-25
-1.661095969091690685595189e-25
-1.007617432302029877333866e-25
-6.031932102780200934435726e-26
-3.563504084743223129474823e-26
-2.077590594320574594101802e-26
-1.195384219285054398486686e-26
-6.787712037941621923489393e-27
-3.803743106475691229197059e-27
-2.103651891797244219806228e-27
-1.148189544146236115253186e-27
-6.184876111275168232063218e-28
-3.287948738154467851041185e-28
-1.725013537570744495688156e-28
-8.931571973745849092429893e-29
-3.627255601986850553374979e-29
-1.42438135541109756284149e-29
-5.414205263599550663056259e-30
-1.993955742233957482817236e-30
-7.120953635905497697014027e-31
-2.467948615842330637800735e-31
-8.306389076262297210775957e-32
-2.716711120309249138646889e-32
-8.639412220660283314221793e-33
-2.672820224841696149099868e-33
-8.048569143465083565324307e-34
-2.360124491399025742912716e-34
-6.742320976800910521874879e-35
-1.877247890649413989361407e-35
-5.09612971416289498875634e-36
-1.349352391534277774257848e-36
-3.485996529664932717968805e-37
-8.789973034201813523329625e-38
-2.163922795351227032711445e-38
-5.202556540614481172651619e-39
-1.221891830406174446636371e-39
-2.804159911314352700000531e-40
-6.289747708217964887238182e-41
-1.379188938309038218553071e-41
-2.957109088653186660332793e-42
-6.200834779363056073058272e-43
-1.271895761620475572135536e-43
-2.552370237041438125926612e-44
-5.011774447515813593422967e-45
-9.630575768312429118229913e-46
-1.811235345670257237218985e-46
-3.33426124125967275773656e-47
-6.00837601072536399047848e-48
-1.059906112537172087902079e-48
-1.830369526992597458697676e-49
-3.094326546367887860644871e-50
-5.120696325770020239221932e-51
-8.294476868669959884369576e-52
-1.31488090639612138110499e-52
-2.0395579118544537963105e-53
-3.094719809428315751436192e-54
-4.591840480915277206872793e-55
-6.659282697582358889403403e-56
-9.433531570100651820311898e-57
-1.304288103828958553663265e-57
-1.75815071600906357994372e-58
-2.307235567705076207117123e-59
-2.941833700174570394923307e-60
-3.634303886846590603961475e-61
-4.332451055001748856678358e-62
-4.95284697745546069900455e-63
-5.37501866170895849907791e-64
-5.437679070619447104952597e-65
-4.93831917340075817772681e-66
-3.6374537682715791489472e-67
-1.268561370841061277649639e-68
2.445746781628477762889271e-69
7.771537810549173085955435e-70
1.493647597636145290426829e-70
2.409995361612921486649771e-71
3.532341859684607096007367e-72
4.854449334976854233503794e-73
6.355866432113279432958547e-74
8.001196874677518690973673e-75
9.740718838147320270197713e-76
1.151246448073996862367285e-76
1.324569433863996915094749e-77
1.486551755387340989390312e-78
1.629824439390104819260684e-79
1.747693941934701971602385e-80
1.83465929666010906098311e-81
1.886835596500489620416106e-82
1.902238642685364341328798e-83
1.880902054893688430408538e-84
1.824818250929992571217109e-85
1.737715442178002120578285e-86
1.624701110275957197311542e-87
1.491815808287958799418513e-88
1.345547970886284963603409e-89
1.192360265639993669415463e-90
1.038271537741594103454773e-91
8.885271646492950648624637e-93
7.473767615064899122164805e-94
6.179639083196941877316883e-95
5.02319895112669420855899e-96
4.014438495211469251672576e-97
3.154457824483083565936873e-98
2.437271308394569217841818e-99
1.851747880391281585970843e-100
1.383485060651457619071189e-101
1.016468817082190643317039e-102
7.344288607188356941466849e-104
5.218523413177382475637534e-105
3.646625097438258337978615e-106
2.505999116194430468333074e-107
1.693617361912707976017915e-108
1.12561584639043078638674e-109
7.356975670770367835027835e-111
4.728618005192641673423466e-112
2.988714666844506887449405e-113
1.857537259466257179365236e-114
1.135217551831411270110177e-115
6.821704626305889276163248e-117
4.030518533801320895117267e-118
2.341333604652596981596712e-119
1.337144845173969803656286e-120
7.507288040637271911986201e-122
4.143355084183674418145726e-123
2.247806712217850277124898e-124
1.198602303056598797400907e-125
6.281603229863506520645804e-127
3.235291183651226848398421e-128
1.637458368440683627886032e-129
8.143404729553928756838792e-131
3.979089972705937699572732e-132
1.910138597898906680920436e-133
9.007598617052745068558856e-135
4.172285883756726508472141e-136
1.898086651851780254363781e-137
8.479869521388010299888111e-139
3.720024492481855883471335e-140
1.60227235615051116659421e-141
6.774999128461254136196791e-143
2.811971716940641698099696e-144
1.145475548728206154494927e-145
4.579057661473401848785628e-147
1.796064259689792639276612e-148
6.911318341630329654772726e-150
2.608727177143699602256578e-151
9.657355763993436858493496e-153
3.505743811626157168220969e-154
1.247735397425621878849237e-155
4.353218972689800338221473e-157
1.488561481025874631961811e-158
4.987822056121620341819133e-160
1.637418539083257191657312e-161
5.265341885123699816673533e-163
1.658142524697729272751415e-164
5.112725083431194444114291e-166
1.543198073656486969352834e-167
4.558575906585278209814227e-169
1.317561070207270060814929e-170
3.725101040867614219641013e-172
1.029955667094504051168327e-173
2.784166064733316603870644e-175
7.356074633957718322404612e-177
1.899086809574674573194148e-178
4.789159616119074569215664e-180
1.179375835212650394353629e-181
2.835178313936669839546591e-183
6.65111520400108957144787e-185
1.522084358900832720238833e-186
3.396647656945699422411861e-188
7.388561345318465817821178e-190
1.565990913309782815392851e-191
3.232605486675932662703471e-193
6.496144592410976646801849e-195
1.270264715766266517358327e-196
2.415763759690316949152896e-198
4.465928902707907199859359e-200
8.021032624126106288881971e-202
1.398819427121600227813093e-203
2.36725204345265515969461e-205
3.885108881293061569064269e-207
6.179406817154232478148027e-209
9.518483231679736489182356e-211
1.418863369801874747714686e-212
2.045126811379017059664376e-214
2.848003055305779350581609e-216
3.828350455642484792123529e-218
4.962711310999064881267049e-220
6.197543325442703007082241e-222
7.448001645022396964013241e-224
8.603437628867042414712924e-226
9.540498701174600821322615e-228
1.014261113118171001134969e-229
1.03222430378755327159245e-231
1.004054718550181497262951e-233
9.318666688250783384822808e-236
8.236641861210545117421322e-238
6.919216995501344548234921e-240
5.511840996253785091449165e-242
4.153275248471883535681321e-244
2.952179180963148079944583e-246
1.973415259920569643456349e-248
1.23629150575709252516975e-250
7.23033278017479730860244e-253
3.930105999160074499111444e-255
1.975355957988862082931309e-257
9.126665037386145617627997e-260
3.849336837492592424757945e-262
1.469841345483595258412235e-264
5.030471292662139991265085e-267
1.524099082418343808364045e-269
4.023946714578334731381254e-272
9.06939740181426072674088e-275
1.696542937508449419731873e-277
2.528658250567051712271261e-280
2.81535333135017423284793e-283
2.081363475029036329137426e-286
7.663085902626799505742969e-290
0
0
0
0
0
0
0
0
0
0
0
0
0
0
0
0
0
0
0
0
0
0
0
0
0
0
0
0
0
0
0
0
0
0
0
0
0
0
0
0
0
0
0
0
0
0
0
0
0
0
0
0
0
0
0
0
0
0
0
0
0
0
0
0
0
0
0
0
0
0
0
0
0
0
0
0
0
0
0
0
0
0
0
0
0
0
0
0
0
0
0
0
0
0
0
0
0
0
0
0
0
0
0
0
0
0
0
0
0
0
0
0
0
0
0
0
0
0
0
0
0
0
0
0
-2.841041044913569828250321e-31
-2.874432694182115711633006e-28
-7.321554088580002884645936e-27
-9.362530105237055139902252e-26
-7.962736966361560602396809e-25
-5.060352966111906353697361e-24
-2.561933203121856371543967e-23
-1.076092294807638475968151e-22
-3.856541535273674464289985e-22
-1.203715369352498816530685e-21
-3.323774581061928411589233e-21
-8.220297637722699260601854e-21
-1.839214063347952348844627e-20
-3.753613218945921917411762e-20
-7.036375246430186554541766e-20
-7.018790156771406396213558e-20
-6.955889452555963026135822e-20
-6.847816669538276465012402e-20
-6.69560585998364613272465e-20
-6.501186692687504653555369e-20
-6.267359509075413687876846e-20
-5.997739518201776551223625e-20
-5.696670779312532822941554e-20
-5.369112180174776582537785e-20
-5.020499177813467060956459e-20
-4.656586519494043102289034e-20
-4.283278395963362477136512e-20
-3.906453391895392577811597e-20
-3.53179210156732541559472e-20
-3.16461530783871943145692e-20
-2.809740150268401740454769e-20
-2.47136074434737204289049e-20
-2.152958311349625500267546e-20
-1.857244130671510873481489e-20
-1.586136661213782333871665e-20
-1.340772146104277965177411e-20
-1.121546075791814844313468e-20
-9.281811914294131684431507e-21
-7.598163939961756913341784e-21
-6.151100787901558118887613e-21
-4.923510874872976297717602e-21
-3.895706579909928897677854e-21
-3.046494039957051514951628e-21
-2.354143785309967591987373e-21
-1.797225469227382396513876e-21
-1.355283793777699316342336e-21
-1.009346391866621418672199e-21
-7.422667389001848247325691e-22
-5.38915263131500988901421e-22
-3.862391716094926258053208e-22
-2.732159344468234276260803e-22
-1.90727020330961725343876e-22
-1.313777482583544114233444e-22
-8.928657284830418980092573e-23
-5.986337869117129628288345e-23
-3.959203098574583150333719e-23
-2.582804104324008834289549e-23
-1.661815955005437948078601e-23
-1.054527340872632850497575e-23
-6.599286845795118758165045e-24
-4.072735968969386132237353e-24
-2.478657083674736259791902e-24
-1.487590241907519396272739e-24
-8.804147997236184202742853e-25
-5.138465299985781623110103e-25
-2.957540692822123017306132e-25
-1.678773833269647088797813e-25
-9.397972664662932122552372e-26
-5.188908068018139332664294e-26
-2.825786010326161000689133e-26
-1.51791536469887433671929e-26
-8.043138156003672248399254e-27
-4.204345851082142694431593e-27
-2.16816048222683019749586e-27
-1.103135612173205312451852e-27
-4.314127887951600813905155e-28
-1.632832705612267907144658e-28
-5.988081696982000344640451e-29
-2.130027118138155874508336e-29
-7.3559093897593558568739e-30
-2.468303848753284940339859e-30
-8.053590118124414860232053e-31
-2.556773637384669273691113e-31
-7.902421963616506240945391e-32
-2.379144555040132961485566e-32
-6.980384805252903249233346e-33
-1.996741824967686507776961e-33
-5.570807069969341528556513e-34
-1.516433743307276671272784e-34
-4.028850061280233303609551e-35
-1.045017834438351214499498e-35
-2.647125301589035148954218e-36
-6.550108627163578380594941e-37
-1.583628459437117997220537e-37
-3.741878630471210235656404e-38
-8.64275529687867573364368e-39
-1.951773506497278985023998e-39
-4.310266424058356200404861e-40
-9.310081288888325633587867e-41
-1.967202215922749696285994e-41
-4.066834257947386513521809e-42
-8.226890056458616544785939e-43
-1.628696797520812051690883e-43
-3.155855151674982314811121e-44
-5.985575901098235526059423e-45
-1.111319344239024747876603e-45
-2.019943531332128333281957e-46
-3.594353143581621605100712e-47
-6.261613469902063552795445e-48
-1.067888978444367418286628e-48
-1.782855475418613759576766e-49
-2.913500964146217196706254e-50
-4.659739964068038329721786e-51
-7.292385629896539903495637e-52
-1.116407634626698150179807e-52
-1.671349894989929625108259e-53
-2.445692098572269435248447e-54
-3.495928605528600723369993e-55
-4.877579953092191910404874e-56
-6.635459695876392023225086e-57
-8.789240614488957453277758e-58
-1.131387424795779895441682e-58
-1.411506021804589509460139e-59
-1.700089517240293884749225e-60
-1.965200806796914954074487e-61
-2.15937870914563438152408e-62
-2.217552285484887948224873e-63
-2.056216574896337322675084e-64
-1.574462407682719705956027e-65
-6.573838717167631659383859e-67
8.17792361760693170133249e-68
2.972803465743503466596696e-68
5.917005181413678557927847e-69
9.734352609429411519845894e-70
1.446989691257301625830765e-70
2.011732075509833342797093e-71
2.66092035457107594879683e-72
3.381165105508450478555045e-73
4.152461326734480541368458e-74
4.948866130042564911821466e-75
5.739825591272282322279352e-76
6.492071341249972830764457e-77
7.171928237808551439821143e-78
7.747811409408594709274741e-79
8.192654999768079682716609e-80
8.486012969010825993849264e-81
8.615605769915526093323908e-82
8.57815119845407486194536e-83
8.379403646603429367788878e-84
8.033420363569114338914034e-85
7.561162089939955105697204e-86
6.988605928968747832382522e-87
6.34459148040322419049904e-88
5.658632910312338671648304e-89
4.95891083963387073990468e-90
4.270614380097994463009288e-91
3.614744181858939290783265e-92
3.007422173791386590080832e-93
2.45969245220440748648741e-94
1.977748162014469626651145e-95
1.563485922857737629110181e-96
1.215273877290362219864446e-97
9.288204046608604532696136e-99
6.98044477003470698215103e-100
5.158709309223457983523052e-101
3.748998241747388102379151e-102
2.679243777519175246119001e-103
1.882937135375606507881787e-104
1.301329126824266547960133e-105
8.844328707192613425541047e-107
5.911058961299979425509895e-108
3.884923306295798372799961e-109
2.510777640782977137087063e-110
1.59563126976863671385589e-111
9.971101942552996043591627e-113
6.126691692057055608133282e-114
3.701392958624867751542281e-115
2.19858306424257464296144e-116
1.283924552675442338269914e-117
7.37112435385826588114417e-119
4.160087939829976422245657e-120
2.307921530285986874992536e-121
1.258527855617641794675707e-122
6.745275785616695180942336e-124
3.553053948214708925318293e-125
1.839236351467189635520688e-126
9.355643665001395862676097e-128
4.676007806504974867134871e-129
2.296177854932541935823389e-130
1.107710166676433680559516e-131
5.249245712171698649752903e-133
2.443294651065596022956039e-134
1.116912610688744896375905e-135
5.013965414535976169628042e-137
2.210114436807201412449384e-138
9.564671358635638650411883e-140
4.063458355487958965180759e-141
1.694488529331542356944561e-142
6.934945144071524568259118e-144
2.785167970899527850052334e-145
1.09749845132571944789296e-146
4.242663025583439344741323e-148
1.60875854798691599836042e-149
5.982656910072875053114585e-151
2.181619140310881076592548e-152
7.799621062233978078834361e-154
2.733400380025186789744393e-155
9.388384054029399065007659e-157
3.159774415818351409489537e-158
1.041875265062893393251957e-159
3.364987486456730318103786e-161
1.064313712176784158512657e-162
3.295955526262263679689583e-164
9.991299206508095875319719e-166
2.964089195827947226314123e-167
8.603697185915268393107552e-169
2.442841596293425056194581e-170
6.782805610880668561840821e-172
1.841239853786242660263129e-173
4.885135884886076949023329e-175
1.266431265848790009939366e-176
3.206959616122610250835662e-178
7.930032311777414362222283e-180
1.914180697900846043006344e-181