/*--------------------------------*- C++ -*----------------------------------*\
| =========                 |                                                 |
| \\      /  F ield         | OpenFOAM: The Open Source CFD Toolbox           |
|  \\    /   O peration     | Version:  v2012                                 |
|   \\  /    A nd           | Website:  www.openfoam.com                      |
|    \\/     M anipulation  |                                                 |
\*---------------------------------------------------------------------------*/
FoamFile
{
    version     2.0;
    format      ascii;
    class       volScalarField;
    location    "0.7";
    object      alpha.water;
}
// * * * * * * * * * * * * * * * * * * * * * * * * * * * * * * * * * * * * * //

dimensions      [0 0 0 0 0 0 0];


internalField   nonuniform List<scalar> 
96000
(
0
0
0
0
0
0
0
0
0
0
0
0
0
0
0
0
0
0
0
0
0
0
0
0
0
0
0
0
0
0
0
0
0
0
0
0
0
0
0
0
0
0
0
0
0
0
0
0
0
0
0
0
0
0
0
0
0
0
0
0
0
0
0
0
0
0
0
0
0
0
0
0
0
0
0
0
0
0
0
0
0
0
0
0
0
0
0
0
0
0
0
0
0
0
0
0
0
0
0
0
0
0
0
0
0
0
0
0
0
0
0
0
0
0
0
0
0
0
0
0
0
0
0
0
0
0
0
0
0
0
0
0
0
0
0
0
0
0
0
0
0
0
0
0
0
0
0
0
0
0
0
0
0
0
0
0
0
0
0
0
0
0
0
0
0
0
0
0
0
0
0
0
0
0
0
0
0
0
0
0
0
0
0
0
0
0
0
0
0
0
0
0
0
0
0
0
0
0
0
0
0
0
0
0
0
0
0
0
0
0
0
0
0
0
0
0
0
0
0
0
0
0
0
0
0
0
0
0
0
0
0
0
0
0
0
0
0
0
0
0
0
0
0
0
0
0
0
0
0
0
0
0
0
0
0
0
0
0
0
0
0
0
0
0
0
0
0
0
0
0
0
0
0
0
0
0
0
0
0
0
0
0
0
0
0
0
0
0
0
0
0
0
0
0
0
0
0
0
0
0
0
0
0
0
0
0
0
0
0
0
0
0
0
0
0
0
0
0
0
0
0
0
0
0
0
0
0
0
0
0
0
0
0
0
0
0
0
0
0
0
0
0
0
0
0
0
0
0
0
0
0
0
0
0
0
0
0
0
0
0
0
0
0
0
0
0
0
0
0
0
0
0
0
0
0
0
0
0
0
0
0
0
0
0
0
0
0
0
0
0
0
0
0
0
0
0
0
0
0
0
0
0
0
0
0
0
0
0
0
0
0
0
0
0
0
0
0
0
0
0
0
0
0
0
0
0
0
0
0
0
0
0
0
0
0
0
0
0
0
0
0
0
0
0
0
0
0
0
0
0
0
0
0
0
0
0
0
0
0
0
0
0
0
0
0
0
0
0
0
0
0
0
0
0
0
0
0
0
0
0
0
0
0
0
0
0
0
0
0
0
0
0
0
0
0
0
0
0
0
0
0
0
0
0
0
0
0
0
0
0
0
0
0
0
0
0
0
0
0
0
0
0
0
0
0
0
0
0
0
0
0
0
0
0
0
0
0
0
0
0
0
0
0
0
0
0
0
0
0
0
0
0
0
0
0
0
0
0
0
0
0
0
0
0
0
0
0
0
0
0
0
0
0
0
0
0
0
0
0
0
0
0
0
0
0
0
0
0
0
0
0
0
0
0
0
0
0
0
0
0
0
0
0
0
0
0
0
0
0
0
0
0
0
0
0
0
0
0
0
0
0
0
0
0
0
0
0
0
0
0
0
0
0
0
0
0
0
0
0
0
0
0
0
0
0
0
0
0
0
0
0
0
0
0
0
0
0
0
0
0
0
0
0
0
0
0
0
0
0
0
0
0
0
0
0
0
0
0
0
0
0
0
0
0
0
0
0
0
0
0
0
0
0
0
0
0
0
0
0
0
0
0
0
0
0
0
0
0
0
0
0
0
0
0
0
0
0
0
0
0
0
0
0
0
0
0
0
0
0
0
0
0
0
0
0
0
0
0
0
0
0
0
0
0
0
0
0
0
0
0
0
0
0
0
0
0
0
0
0
0
0
0
0
0
0
0
0
0
0
0
0
0
0
0
0
0
0
0
0
0
0
0
0
0
0
0
0
0
0
0
0
0
0
0
0
0
0
0
0
0
0
0
0
0
0
0
0
0
0
0
0
0
0
0
0
0
0
0
0
0
0
0
0
0
0
0
0
0
0
0
0
0
0
0
0
0
0
0
0
0
0
0
0
0
0
0
0
0
0
0
0
0
0
0
0
0
0
0
0
0
0
0
0
0
0
0
0
0
0
0
0
0
0
0
0
0
0
0
0
0
0
0
0
0
0
0
0
0
0
0
0
0
0
0
0
0
0
0
0
0
0
0
0
0
0
0
0
0
0
0
0
0
0
0
0
0
0
0
0
0
0
0
0
0
0
0
0
0
0
0
0
0
0
0
0
0
0
0
0
0
0
0
0
0
0
0
0
0
0
0
0
0
0
0
0
0
0
0
0
0
0
0
0
0
0
0
0
0
0
0
0
0
0
0
0
0
0
0
0
0
0
0
0
0
0
0
0
0
0
0
0
0
0
0
0
0
0
0
0
0
0
0
0
0
0
0
0
0
0
0
0
0
0
0
0
0
0
0
0
0
0
0
0
0
0
0
0
0
0
0
0
0
0
0
0
0
0
0
0
0
0
0
0
0
0
0
0
0
0
0
0
0
0
0
0
0
0
0
0
0
0
0
0
0
0
0
0
0
0
0
0
0
0
0
0
0
0
0
0
0
0
0
0
0
0
0
0
0
0
0
0
0
0
0
0
0
0
0
0
0
0
0
0
0
0
0
0
0
0
0
0
0
0
0
0
0
0
0
0
0
0
0
0
0
0
0
0
0
0
0
0
0
0
0
0
0
0
0
0
0
0
0
0
0
0
0
0
0
0
0
0
0
0
0
0
0
0
0
0
0
0
0
0
0
0
0
0
0
0
0
0
0
0
0
0
0
0
0
0
0
0
0
0
0
0
0
0
0
0
0
0
0
0
0
0
0
0
0
0
0
0
0
0
0
0
0
0
0
0
0
0
0
0
0
0
0
0
0
0
0
0
0
0
0
0
0
0
0
0
0
0
0
0
0
0
0
0
0
0
0
0
0
0
0
0
0
0
0
0
0
0
0
0
0
0
0
0
0
0
0
0
0
0
0
0
0
0
0
0
0
0
0
0
0
0
0
0
0
0
0
0
0
0
0
0
0
0
0
0
0
0
0
0
0
0
0
0
0
0
0
0
0
0
0
0
0
0
0
0
0
0
0
0
0
0
0
0
0
0
0
0
0
0
0
0
0
0
0
0
0
0
0
0
0
0
0
0
0
0
0
0
0
0
0
0
0
0
0
0
0
0
0
0
0
0
0
0
0
0
0
0
0
0
0
0
0
0
0
0
0
0
0
0
0
0
0
0
0
0
0
0
0
0
0
0
0
0
0
0
0
0
0
0
0
0
0
0
0
0
0
0
0
0
0
0
0
0
0
0
0
0
0
0
0
0
0
0
0
0
0
0
0
0
0
0
0
0
0
0
0
0
0
0
0
0
0
0
0
0
0
0
0
0
0
0
0
0
0
0
0
0
0
0
0
0
0
0
0
0
0
0
0
0
0
0
0
0
0
0
0
0
0
0
0
0
0
0
0
0
0
0
0
0
0
0
0
0
0
0
0
0
0
0
0
0
0
0
0
0
0
0
0
0
0
0
0
0
0
0
0
0
0
0
0
0
0
0
0
0
0
0
0
0
0
0
0
0
0
0
0
0
0
0
0
0
0
0
0
0
0
0
0
0
0
0
0
0
0
0
0
0
0
0
0
0
0
0
0
0
0
0
0
0
0
0
0
0
0
0
0
0
0
0
0
0
0
0
0
0
0
0
0
0
0
0
0
0
0
0
0
0
0
0
0
0
0
0
0
0
0
0
0
0
0
0
0
0
0
0
0
0
0
0
0
0
0
0
0
0
0
0
0
0
0
0
0
0
0
0
0
0
0
0
0
0
0
0
0
0
0
0
0
0
0
0
0
0
0
0
0
0
0
0
0
0
0
0
0
0
0
0
0
0
0
0
0
0
0
0
0
0
0
0
0
0
0
0
0
0
0
0
0
0
0
0
0
0
0
0
0
0
0
0
0
0
0
0
0
0
0
0
0
0
0
0
0
0
0
0
0
0
0
0
0
0
0
0
0
0
0
0
0
0
0
0
0
0
0
0
0
0
0
0
0
0
0
0
0
0
0
0
0
0
0
0
0
0
0
0
0
0
0
0
0
0
0
0
0
0
0
0
0
0
0
0
0
0
0
0
0
0
0
0
0
0
0
0
0
0
0
0
0
0
0
0
0
0
0
0
0
0
0
0
0
0
0
0
0
0
0
0
0
0
0
0
0
0
0
0
0
0
0
0
0
0
0
0
0
0
0
0
0
0
0
0
0
0
0
0
0
0
0
0
0
0
0
0
0
0
0
0
0
0
0
0
0
0
0
0
0
0
0
0
0
0
0
0
0
0
0
0
0
0
0
0
0
0
0
0
0
0
0
0
0
0
0
0
0
0
0
0
0
0
0
0
0
0
0
0
0
0
0
0
0
0
0
0
0
0
0
0
0
0
0
0
0
0
0
0
0
0
0
0
0
0
0
0
0
0
0
0
0
0
0
0
0
0
0
0
0
0
0
0
0
0
0
0
0
0
0
0
0
0
0
0
0
0
0
0
0
0
0
0
0
0
0
0
0
0
0
0
0
0
0
0
0
0
0
0
0
0
0
0
0
0
0
0
0
0
0
0
0
0
0
0
0
0
0
0
0
0
0
0
0
0
0
0
0
0
0
0
0
0
0
0
0
0
-2.312570914005175356920999e-37
-8.647618682433983261366166e-25
-1.234498456799202130995632e-23
-8.749569290109822211592155e-23
-4.106086854061917160212341e-22
-1.435637142233398318796878e-21
-3.989581298095090385818265e-21
-9.18032652781648793808089e-21
-1.799358023331672702582638e-20
-3.06688852233240251488594e-20
-4.618116841830310975298853e-20
-6.220496341158427741724394e-20
-7.570725217954040463189868e-20
-6.440092670123167726578663e-20
-5.407104008508647635938303e-20
-4.478664179970020414545827e-20
-3.657918867166476597844089e-20
-2.944489875126839138990896e-20
-2.334875330578357621618948e-20
-1.82297733742052863693614e-20
-1.400711407575391746723361e-20
-1.058648408231855409089896e-20
-7.866412411314567622804005e-21
-5.743946144822879311854918e-21
-4.119460680968089243188879e-21
-2.900383941367768218653214e-21
-2.003760867871735043696523e-21
-1.357698692698518394867379e-21
-9.018244073626401903226502e-22
-5.869461872831654407497434e-22
-3.741384084622406704088558e-22
-2.334684305248340677320131e-22
-1.425591579514410103859669e-22
-8.514290332281535105782055e-23
-4.971764214860234348036785e-23
-2.837342367156342976854415e-23
-1.581945403452040270761282e-23
-8.613881536943032989585336e-24
-4.579240475197645307727134e-24
-2.375994634377535676412717e-24
-1.202918576159656778394374e-24
-5.940980682358999698863949e-25
-2.861635985792179232417384e-25
-1.34405994958404557827545e-25
-6.154523699140255362335904e-26
-2.747100390937697388799457e-26
-1.195088054727093278095617e-26
-5.066626727275343608855502e-27
-2.093081383674447136773422e-27
-8.424830147902952160352956e-28
-3.303752199898306404067207e-28
-1.26209184584213820583614e-28
-4.696546288108204515535764e-29
-1.702303188182949427214925e-29
-6.009388730609420839410942e-30
-2.065947672121948561620898e-30
-6.916058814106154597447062e-31
-2.25421327892997013984773e-31
-7.152604932116221061204787e-32
-2.208963619797395472916098e-32
-6.638541321654575268907998e-33
-1.940881681667156139934083e-33
-5.518514508358638222335945e-34
-1.525318828906195007788358e-34
-4.096252936757359204741401e-35
-1.068101564315678135718381e-35
-2.701901617168199088731871e-36
-6.623382919393220997861063e-37
-1.571133048732187056220873e-37
-3.599300739387661507897937e-38
-7.941729791881582022168354e-39
-1.681149097193222322527082e-39
-3.394153974552028640737641e-40
-3.723944815639451440913473e-41
-3.659816412345236490607171e-42
-2.99761328338722322873034e-43
-1.541298570307410220591959e-44
8.591783955896786277010492e-46
4.268212846107595874999927e-46
8.631801489653678064436363e-47
1.376065777786579388836219e-47
1.933584540932581545220851e-48
2.493910894602408644109031e-49
3.010442290532534056496147e-50
3.438197691986180167084623e-51
3.74024146578451726555076e-52
3.892869756007366043773844e-53
3.888565419939153033881301e-54
3.736235066034289730103823e-55
3.4588445086249905532407e-56
3.089103566848914995341631e-57
2.664185582663693022585703e-58
2.22053807644989906610749e-59
1.789665318957726683931237e-60
1.39542225377950284430626e-61
1.052963811860694639082979e-62
7.691491261336716247738888e-64
5.439763563777740699997223e-65
3.725438279233265592673564e-66
2.470780654957038030498698e-67
1.586941818986052460862197e-68
9.870734946398736677385962e-70
5.945306409012916601519345e-71
3.467321758791709883413634e-72
1.957732920930735755115101e-73
1.069997007394564782432514e-74
5.65976903743886725812237e-76
2.896718489391930694213645e-77
1.434158603795577702095502e-78
6.866743629754308203531521e-80
3.178588118996002311144906e-81
1.422007495566348421254184e-82
6.146039194924939946076798e-84
2.565328435690974593510803e-85
1.033616772118140677753448e-86
4.018328821073882318420346e-88
1.506559109077436240590296e-89
5.444415242769255856190891e-91
1.895367514330335799016351e-92
6.352542420105904255537401e-94
2.048468392981659818476063e-95
6.350873151850615908211707e-97
1.891614689411811972280554e-98
5.408481634046531188088636e-100
1.483144614801383736137344e-101
3.897178688112225929430003e-103
9.802513774493660118502302e-105
2.357609124594630832245722e-106
5.41554035819470026987047e-108
1.18656965804412062492987e-109
2.476420438929924558267115e-111
4.915641663345810365648651e-113
9.265008224722392530445176e-115
1.65515398078182654885728e-116
2.797036127609829505400894e-118
4.461455409014076607201912e-120
6.700755000357208317249168e-122
9.450858802779011651953022e-124
1.247993736308569698515147e-125
1.537718702779826554535082e-127
1.761162725878677916074791e-129
1.866721840059006382141506e-131
1.821919435828844837203678e-133
1.627809359907474945652748e-135
1.322234596580731843828501e-137
9.684376628995640102917396e-140
6.332269164496467348061128e-142
3.650961182906172016254393e-144
1.827283443675110624497131e-146
7.777325153482205200193051e-149
2.7370006018639294921763e-151
7.646095102348556581772961e-154
1.589732644499550598890064e-156
2.186770668478729114227237e-159
1.492676224217616011875966e-162
0
0
0
0
0
0
0
0
0
0
0
0
0
0
0
0
0
0
0
0
0
0
0
0
0
0
0
0
0
0
0
0
0
0
0
0
0
0
0
0
0
0
0
0
0
0
0
0
0
0
0
0
0
0
0
0
0
0
0
0
0
0
0
0
0
0
0
0
0
0
0
0
0
0
0
0
0
0
0
0
0
0
0
0
0
0
0
0
0
0
0
0
0
0
0
0
0
0
0
0
0
0
0
0
0
0
0
0
0
0
0
0
0
0
0
0
0
0
0
0
0
0
0
0
0
0
0
0
0
0
0
0
0
0
0
0
0
0
0
0
0
0
0
0
0
0
0
0
0
0
0
0
0
0
0
0
0
0
0
0
0
0
0
0
0
0
0
0
0
0
0
0
0
0
0
0
0
0
0
0
0
0
0
0
0
0
0
0
0
0
0
0
0
0
0
0
0
0
0
0
0
0
0
0
0
0
0
0
0
0
0
0
0
0
0
0
0
0
0
0
0
0
0
0
0
0
0
0
0
0
0
0
0
0
0
0
0
0
0
0
0
0
0
0
-1.959605571490524125476572e-22
-2.836765398659104611235767e-21
-2.03538806409304312084882e-20
-9.648954284090503394411411e-20
-3.399198231471887343879758e-19
-9.490036857798003446257674e-19
-2.186702825032464450395827e-18
-4.276496582471597095725597e-18
-7.244962853680542334310135e-18
-1.07994055590475754603543e-17
-1.433871637051524728661535e-17
-1.712690792970483900785778e-17
-1.85553304422693500439611e-17
-1.836022049463382796699833e-17
-1.442645142762832979663413e-17
-1.116585295408453114759232e-17
-8.508385007830404103531639e-18
-6.379650958930082500067857e-18
-4.704506913025103412587173e-18
-3.41015737618079263094041e-18
-2.428613165700022573703685e-18
-1.698452043704433341798884e-18
-1.165885477318899711305256e-18
-7.851895265682801311739837e-19
-5.185990625595563537043694e-19
-3.357894852044007026114943e-19
-2.130784556784300062565038e-19
-1.32473743737450759752832e-19
-8.067564685075945923788407e-20
-4.811797928696209432875121e-20
-2.810481219321728685421141e-20
-1.607476745919151053393439e-20
-9.00340896259730174808196e-21
-4.938536081541254057540445e-21
-2.65319423784715369978109e-21
-1.396321606498031970340161e-21
-7.19985067153559060827227e-22
-3.638001249881226695292658e-22
-1.801690230654474547012216e-22
-8.746654045557417638381656e-23
-4.162923950740652876764182e-23
-1.942574920017591032021071e-23
-8.887538526462625822543989e-24
-3.986411346407379540515554e-24
-1.752757855794450713503325e-24
-7.55290077699404841843545e-25
-3.188917760119602892923304e-25
-1.318780215582216228818087e-25
-5.340027213335018437448628e-26
-2.116332793431019050945284e-26
-8.205614519467523627164893e-27
-3.111258236418016867584274e-27
-1.153101279419947291063853e-27
-4.17555511897892829442622e-28
-1.476683535629318773371257e-28
-5.098016493208295678800433e-29
-1.717405455187328373782441e-29
-5.643149592893948631171774e-30
-1.807869127044372145394093e-30
-5.644508481255269364934131e-31
-1.71676005047472124688589e-31
-5.084129033035171390946984e-32
-1.465305706864820203781898e-32
-4.107706691772021510618283e-33
-1.119302156395973575017552e-33
-2.962351550355387475520284e-34
-7.60778713975591588535614e-35
-1.893653526621515323762338e-35
-4.561457104625984879032558e-36
-1.061188383554548327142807e-36
-2.377750332842636108966236e-37
-5.111041185043540670441465e-38
-1.047721051824973934056126e-38
-2.028821270203569901763172e-39
-2.050641301997231697725621e-40
-1.754661220240877784512157e-41
-1.01992594751872095562866e-42
2.552991664083182030546763e-44
2.129497752949932891250602e-44
4.596019841666808253629465e-45
7.568876488462108743695983e-46
1.088093554308211773567471e-46
1.429697321844899018271537e-47
1.754076482436021619258035e-48
2.033197286860416908931929e-49
2.242599303507254616239233e-50
2.364893887581013176132835e-51
2.392091045790583495742837e-52
2.326334502342808323339636e-53
2.17898367444892394681599e-54
1.968334272370462555781845e-55
1.716524916752726428086819e-56
1.446279581643008937559518e-57
1.1780776399059918584242e-58
9.281623824211559415646584e-60
7.075597983376174224117116e-61
5.220506577229339397341768e-62
3.728726106471229603049158e-63
2.578495837113390443027022e-64
1.726496916005466041922274e-65
1.119366700852623704131643e-66
7.027174454753762556846181e-68
4.271378350796913740526973e-69
2.513596234926501763442755e-70
1.431889548849022790963609e-71
7.894823080273284444976142e-73
4.212240356821115764439942e-74
2.174341692700614805930292e-75
1.085624759055914618361783e-76
5.241430705955776425726512e-78
2.446281654750116739244459e-79
1.103329547866877897582862e-80
4.807164632382312714883295e-82
2.022493837681779735520281e-83
8.213261429293421444479316e-85
3.217923693746327999192752e-86
1.21577684678945046387906e-87
4.427112075268210639651371e-89
1.552849314683689979776723e-90
5.243435301577882284848576e-92
1.70332181398042072313295e-93
5.319457984715574275487024e-95
1.595883763858990919842553e-96
4.595654817526931899670208e-98
1.26919544613427380671591e-99
3.35844650494168996623365e-101
8.506275682313409971715255e-103
2.059961177567538132462508e-104
4.764158537565051905717629e-106
1.050914328133718512278578e-107
2.208010537527178056197629e-109
4.411976588371785970122344e-111
8.370454483634482541775202e-113
1.505103554213436945167812e-114
2.559916274167624043826672e-116
4.109408812827984931143998e-118
6.211227827884705899772026e-120
8.815605680160618707732422e-122
1.171378027464315575632822e-123
1.452253244737862856207339e-125
1.67348993779849091957147e-127
1.78459269944470850184111e-129
1.752276418599661542884144e-131
1.574959247437444789737201e-133
1.286901567167796031705099e-135
9.481095551310628775084268e-138
6.235561338932187538178643e-140
3.616032445467418340911769e-142
1.820202831840856972366905e-144
7.791355057153426557913206e-147
2.7574450501983490122657e-149
7.746428313468807978865709e-152
1.619558261535943664653663e-154
2.240100258279296975942565e-157
1.537456510943958904496227e-160
0
0
0
0
0
0
0
0
0
0
0
0
0
0
0
0
0
0
0
0
0
0
0
0
0
0
0
0
0
0
0
0
0
0
0
0
0
0
0
0
0
0
0
0
0
0
0
0
0
0
0
0
0
0
0
0
0
0
0
0
0
0
0
0
0
0
0
0
0
0
0
0
0
0
0
0
0
0
0
0
0
0
0
0
0
0
0
0
0
0
0
0
0
0
0
0
0
0
0
0
0
0
0
0
0
0
0
0
0
0
0
0
0
0
0
0
0
0
0
0
0
0
0
0
0
0
0
0
0
0
0
0
0
0
0
0
0
0
0
0
0
0
0
0
0
0
0
0
0
0
0
0
0
0
0
0
0
0
0
0
0
0
0
0
0
0
0
0
0
0
0
0
0
0
0
0
0
0
0
0
0
0
0
0
0
0
0
0
0
0
0
0
0
0
0
0
0
0
0
0
0
0
0
0
0
0
0
0
0
0
0
0
0
0
0
0
0
0
0
0
0
0
0
0
0
0
0
0
0
0
0
0
0
0
0
0
0
0
0
0
0
0
0
0
-2.585301185914184863326566e-24
-1.466366132609374847711008e-21
-2.0798186456380113573198e-20
-1.473432962797933999155816e-19
-6.905721285088655742225951e-19
-2.40505176268826305024572e-18
-6.634020833901839741417646e-18
-1.508919935563551849835346e-17
-2.909618839610222812896729e-17
-4.853909892490405617540029e-17
-7.115179949992001089237037e-17
-9.279013830815240001395816e-17
-1.087572298782719554319168e-16
-1.155454440718286558644912e-16
-1.120764425731007212000386e-16
-9.002865156756694164005363e-17
-7.110332871479628473176969e-17
-5.518814154370191773329778e-17
-4.207721688354161931451957e-17
-3.149837460966886015532697e-17
-2.31398329149673502811684e-17
-1.667445428567986879870143e-17
-1.178010457220707133301684e-17
-8.155287842562888907762543e-18
-5.529811196883633226070323e-18
-3.670749668459820881044188e-18
-2.384367097741747915979545e-18
-1.51487885790386215489305e-18
-9.410197486961895581595911e-19
-5.713309111664429691347751e-19
-3.389416789853038147723997e-19
-1.964372742122190056950099e-19
-1.112079168105134867422514e-19
-6.149684183994572030238623e-20
-3.32208431630446790959126e-20
-1.753426342623327483940993e-20
-9.044869044071038181055131e-21
-4.561519920991949623696045e-21
-2.250053183582130348773344e-21
-1.086062331415694368601458e-21
-5.132238105541152740647014e-22
-2.375508827266165154951976e-22
-1.077447614060057669415792e-22
-4.7905987863830555198352e-23
-2.088645733997674763472313e-23
-8.931075558739300049004976e-24
-3.745764510146337960781052e-24
-1.540843451733393118652074e-24
-6.215744343710705295031072e-25
-2.458302886569258699598111e-25
-9.528795480839704440396229e-26
-3.618447731587696834469798e-26
-1.345504887011217012780581e-26
-4.896732132153048628934792e-27
-1.743224259346074111720565e-27
-6.067180412786689051748662e-28
-2.063311517405788403675357e-28
-6.852407242579256662105578e-29
-2.221148496252952757812184e-29
-7.022993283896624788955831e-30
-2.164848726352724170763521e-30
-6.501839067268340144151465e-31
-1.901417354649140285994403e-31
-5.410768022353732794128899e-32
-1.49711669801517281210908e-32
-4.02434335758454510654897e-33
-1.049870250323827123043183e-33
-2.654832667971717860501914e-34
-6.497043777694083463256453e-35
-1.535591021806462037744446e-35
-3.495404206014841550894722e-36
-7.632198561040648340951318e-37
-1.589061500260557490221592e-37
-3.124799467079959630323859e-38
-5.70702480997005759812669e-39
-5.084915955717771079617887e-40
-3.26312919099341930801633e-41
9.016357716244154980429992e-44
5.202221106007389120177514e-43
1.212549525532021136388122e-43
2.068452046801116518001638e-44
3.045571200229839524335644e-45
4.079053179432492104909343e-46
5.08834067051505335459712e-47
5.987517380476597027061909e-48
6.697364199282362517746663e-49
7.156785186855001850400219e-50
7.33133881418542112676045e-51
7.217253085920199772221497e-52
6.840330900097282783610445e-53
6.250274879403974986192586e-54
5.511877654603339594465558e-55
4.695015249860176977012102e-56
3.865370339454838237053144e-57
3.077369514324568993206529e-58
2.370121796174477051203323e-59
1.766409648857428926544965e-60
1.274192747131820249087726e-61
8.897458514941157778879942e-63
6.014826574218936850459368e-64
3.936621858616693145304768e-65
2.494395417948465395924366e-66
1.530127982775825347421141e-67
9.086040863929271400228393e-69
5.222213440987952650977366e-70
2.904704064854250395025353e-71
1.563281927988327893023424e-72
8.138953887468312227717559e-74
4.098176716693717297998594e-75
1.995197554395025963791831e-76
9.389099623893862657150836e-78
4.269350043106374950459247e-79
1.87518157706503868332675e-80
7.952419432227358657833675e-82
3.254965955219696726289183e-83
1.285249044365376181022376e-84
4.893382225439800245080721e-86
1.795491748317504257423994e-87
6.345482040615433030967216e-89
2.158684880921457455013404e-90
7.06438737573450831898677e-92
2.22237244230347208556582e-93
6.715685052558377620802114e-95
1.947801614606507549755683e-96
5.417556076820760803129391e-98
1.44364670538010732576284e-99
3.681969109612648128674596e-101
8.978197298364595997919358e-103
2.090631761981769195024547e-104
4.642931218417491738937705e-106
9.820477019489446307077261e-108
1.975352350694946581175024e-109
3.772369916690242149787509e-111
6.827471297520462606504189e-113
1.168752098098573720475139e-114
1.888228070805571795788382e-116
2.872147700993778846751209e-118
4.102152851397496332405569e-120
5.484836561176387924165419e-122
6.842154159805443966198431e-124
7.932951595119075817947004e-126
8.511178218936665928109986e-128
8.407562030950608021700122e-130
7.602072806342868522609983e-132
6.248588730477134777862115e-134
4.630714619342965182989107e-136
3.063354110042123001306169e-138
1.78675774432370425908113e-140
9.045752021953171363628472e-143
3.894121696360213827274125e-145
1.385974915869409508190633e-147
3.915458117396932427854123e-150
8.231728810919832937210812e-153
1.144870573297462023119931e-155
7.900735254783743016492953e-159
0
0
0
0
0
0
0
0
0
0
0
0
0
0
0
0
0
0
0
0
0
0
0
0
0
0
0
0
0
0
0
0
0
0
0
0
0
0
0
0
0
0
0
0
0
0
0
0
0
0
0
0
0
0
0
0
0
0
0
0
0
0
0
0
0
0
0
0
0
0
0
0
0
0
0
0
0
0
0
0
0
0
0
0
0
0
0
0
0
0
0
0
0
0
0
0
0
0
0
0
0
0
0
0
0
0
0
0
0
0
0
0
0
0
0
0
0
0
0
0
0
0
0
0
0
0
0
0
0
0
0
0
0
0
0
0
0
0
0
0
0
0
0
0
0
0
0
0
0
0
0
0
0
0
0
0
0
0
0
0
0
0
0
0
0
0
0
0
0
0
0
0
0
0
0
0
0
0
0
0
0
0
0
0
0
0
0
0
0
0
0
0
0
0
0
0
0
0
0
0
0
0
0
0
0
0
0
0
0
0
0
0
0
0
0
0
0
0
0
0
0
0
0
0
0
0
0
0
0
0
0
0
0
0
0
0
0
0
0
0
0
0
0
0
0
-1.945011006614927710208459e-23
-5.450548384719085800479084e-21
-7.568242598432964733415213e-20
-5.290669092919244640710488e-19
-2.450289341523409015043547e-18
-8.432565065441478119666636e-18
-2.297129692281662909160655e-17
-5.15504221767338345733451e-17
-9.794980560149542546727961e-17
-1.607564152690354677041075e-16
-2.314455356098376586803042e-16
-2.997076800456671740298249e-16
-3.651478495742488307376346e-16
-4.387245394173416444143704e-16
-5.245957420117969239890934e-16
-4.658344632852888479269134e-16
-4.089543238182707142926191e-16
-3.54215889537518772546812e-16
-3.018503172291757249649038e-16
-2.522008471076558687446353e-16
-2.058013950843104525590263e-16
-1.633591427492381008783705e-16
-1.256395242340630654296454e-16
-9.329075572691893849162392e-17
-6.66718218676189479959687e-17
-4.574719430215454151898471e-17
-3.008293126650723120336045e-17
-1.893745835608529993972465e-17
-1.140728545508548898382077e-17
-6.576902008693836336815397e-18
-3.633083805696899621286364e-18
-1.926264864706724426365085e-18
-9.828125468544265379280881e-19
-4.842136671434168513597786e-19
-2.313510820974973999462015e-19
-1.077279473239109444050771e-19
-4.915003498570579337365076e-20
-2.208606665740258631145756e-20
-9.818529179206578927546262e-21
-4.331775337105212548621412e-21
-1.899403850184475138845989e-21
-8.27649399901970334154475e-22
-3.579091694059665244828365e-22
-1.532945432336122374825538e-22
-6.488837827828330255517138e-23
-2.709123344829350074167817e-23
-1.11376126312912674901536e-23
-4.502867212636751467793373e-24
-1.788458006955918356654565e-24
-6.972832384451595290352158e-25
-2.666755217611378931137559e-25
-9.998398068024319991910805e-26
-3.672743257922116107145669e-26
-1.32100050998600988362456e-26
-4.649462105588413611499325e-27
-1.600366902534539791595682e-27
-5.383673523560504394671379e-28
-1.768892891715843212279257e-28
-5.672907337661440065337904e-29
-1.774614525843791198375265e-29
-5.41130302251232168176234e-30
-1.607282065060452621508115e-30
-4.646736925429664771049795e-31
-1.306510939987487210247375e-31
-3.569319065736961815765376e-32
-9.464499403364580376511495e-33
-2.432688656950833592760435e-33
-6.051289709639308687400686e-34
-1.453677605874172013047763e-34
-3.362885581413300042047947e-35
-7.461628606928099392741492e-36
-1.578433612537182421585212e-36
-3.153001183445944570163952e-37
-5.848107245239908948682511e-38
-9.735153745388739491837189e-39
-6.784877801789392095788867e-40
-9.699118279175890007345022e-42
8.251678737268099186374845e-42
2.111775096894549725261609e-42
3.743871809207290438970788e-43
5.652984572561756816504725e-44
7.722542242621115426587732e-45
9.798501230929999667307139e-46
1.170809161578362631718094e-46
1.328354871961010551610483e-47
1.438630957942261744752952e-48
1.492686533541074996781823e-49
1.487638074939311203417534e-50
1.426806781771251273201359e-51
1.318859904412360134985454e-52
1.176193426906164202527358e-53
1.012928379799600723208827e-54
8.429269081298347980431863e-56
6.781712383937394002202188e-57
5.277190325668537317314201e-58
3.9729555625721804786116e-59
2.894481481065908701150176e-60
2.040998884092694017838886e-61
1.393069623956791140389821e-62
9.204105527844744213094098e-64
5.886670315696696723359386e-65
3.64434760877023401688605e-66
2.183724864133881099525699e-67
1.266353221265393106375996e-68
7.106029275375996556464589e-70
3.857775810579872854350638e-71
2.025789363134023319930337e-72
1.028715864016280906745719e-73
5.050382103683098356815099e-75
2.396358368624270663338658e-76
1.098591604661036795306731e-77
4.864329257311257670088328e-79
2.079426742497330067938531e-80
8.578595454393064681341254e-82
3.413847639609071077027188e-83
1.309832601384449217895937e-84
4.842877930292548628641126e-86
1.72449810037313951942089e-87
5.91058869160805144832834e-89
1.948613006743740839306641e-90
6.175107701513070745239291e-92
1.879586721486298705830343e-93
5.490723782730587825364816e-95
1.538049398693245472549827e-96
4.127429068777115295903884e-98
1.060037262494475989034352e-99
2.60269644657315288281557e-101
6.102067097966047619861668e-103
1.364360041114035282779046e-104
2.905222680030880785365314e-106
5.882674750630805923265181e-108
1.130841624997523927821493e-109
2.060055695759373875276006e-111
3.549341893991740206715588e-113
5.771138189624524113983009e-115
8.834278001970612481551236e-117
1.269724484725270379534732e-118
1.708327809721463778434157e-120
2.144307819571656531110087e-122
2.501457327353903039597342e-124
2.700160786250400307245645e-126
2.683426127872456027922525e-128
2.440897383517640422771641e-130
2.018254855017828168424608e-132
1.504518715303263465678507e-134
1.001109394804275936767947e-136
5.873058124311047657639424e-139
2.990455927806363545987352e-141
1.294721708158700241897081e-143
4.634221617438111680400252e-146
1.316555326690332410106159e-148
2.7833223882807688605136e-151
3.892474995409710080543364e-154
2.70094165236322734961357e-157
0
0
0
0
0
0
0
0
0
0
0
0
0
0
0
0
0
0
0
0
0
0
0
0
0
0
0
0
0
0
0
0
0
0
0
0
0
0
0
0
0
0
0
0
0
0
0
0
0
0
0
0
0
0
0
0
0
0
0
0
0
0
0
0
0
0
0
0
0
0
0
0
0
0
0
0
0
0
0
0
0
0
0
0
0
0
0
0
0
0
0
0
0
0
0
0
0
0
0
0
0
0
0
0
0
0
0
0
0
0
0
0
0
0
0
0
0
0
0
0
0
0
0
0
0
0
0
0
0
0
0
0
0
0
0
0
0
0
0
0
0
0
0
0
0
0
0
0
0
0
0
0
0
0
0
0
0
0
0
0
0
0
0
0
0
0
0
0
0
0
0
0
0
0
0
0
0
0
0
0
0
0
0
0
0
0
0
0
0
0
0
0
0
0
0
0
0
0
0
0
0
0
0
0
0
0
0
0
0
0
0
0
0
0
0
0
0
0
0
0
0
0
0
0
0
0
0
0
0
0
0
0
0
0
0
0
0
0
0
0
0
0
0
0
0
0
-7.543923421074341407719117e-23
-1.345660872802962159543867e-20
-1.825235259728476026308351e-19
-1.257601305902524164947754e-18
-5.750407108182372611802218e-18
-1.954138432851297805387891e-17
-5.253778740295154282857069e-17
-1.162425124963424294079825e-16
-2.174750384505965126620441e-16
-3.508702731512497115180678e-16
-4.955587000572281585158044e-16
-6.313808323963911708050163e-16
-7.673968457697409697747267e-16
-1.169828022260464240403012e-15
-2.307353589122589514266219e-15
-2.428318618141148511378722e-15
-2.531226173096548264530766e-15
-2.591759727434312916023081e-15
-2.579677442001147841019861e-15
-2.467196886626703471122609e-15
-2.241862233824757487698987e-15
-1.91696998492656934620081e-15
-1.531606773540858618886366e-15
-1.138445872248079383972546e-15
-7.858332365102193780802497e-16
-5.039705064361954216280706e-16
-3.010282068796907740273404e-16
-1.681858124146908236720421e-16
-8.841361864357306706423644e-17
-4.405414543239596911957881e-17
-2.098136249212898521354072e-17
-9.635320946510243646020693e-18
-4.302102712254735379906544e-18
-1.880691361191075854949969e-18
-8.092820495189857460656502e-19
-3.441465376237425393784587e-19
-1.450942334253632576536445e-19
-6.083899056185620482402957e-20
-2.545200105076948246044627e-20
-1.06531169315387353277456e-20
-4.468331730383224060385873e-21
-1.877887112049877943046603e-21
-7.892647025858312079995566e-22
-3.307041810082209892750518e-22
-1.376411256534894589022169e-22
-5.670933456572700732017636e-23
-2.306249085576889137902042e-23
-9.237099410060843007186929e-24
-3.637707454538140205268179e-24
-1.406878346266449067212266e-24
-5.338502284147921903308669e-25
-1.986025867107797576622671e-25
-7.238622769544612024208118e-26
-2.583139808456965799363715e-26
-9.019381674164920673129558e-27
-3.079313574345691735274321e-27
-1.027269822357744103742828e-27
-3.346316891147331731360261e-28
-1.063634901089095467066063e-28
-3.296422094882029944091286e-29
-9.95374201395433153150542e-30
-2.925986651991330605831568e-30
-8.366050710386916033329738e-31
-2.324379952549659477861519e-31
-6.268222751099704720830482e-32
-1.638515275027126715405937e-32
-4.144809386947905607074535e-33
-1.012459792421439894783949e-33
-2.381340321555428858791766e-34
-5.371258125538769503844194e-35
-1.154837367487785943622676e-35
-2.344074923144367295771767e-36
-4.416574135039938050557239e-37
-7.465092735614106761850616e-38
-1.036822056991925426908915e-38
-2.894812866780269743311996e-40
9.477840627743390707773881e-41
2.728565407453804067438753e-41
5.047648353382481458083234e-42
7.827199648428459390144082e-43
1.09141732611492275179355e-43
1.409150879441807543298893e-44
1.710267306555839373123146e-45
1.968582109043284777786929e-46
2.161126752990084018999672e-47
2.271485997474478870702265e-48
2.2920603049713824074567e-49
2.224830821206217185946062e-50
2.080544905441146774307484e-51
1.876583016357881429326058e-52
1.634022257090972780250808e-53
1.374520186825850367929101e-54
1.117594067099907528461766e-55
8.786997500500615395381339e-57
6.682833016894195944073904e-58
4.917547391800347650372185e-59
3.501691809681031026054107e-60
2.413214808226499851573319e-61
1.60963349555868322582616e-62
1.039141800316478034119354e-63
6.492692938377507707193313e-65
3.925959227142426916047746e-66
2.297156874472825250227456e-67
1.30046283779256075711115e-68
7.121840573388840543668112e-70
3.772113679075240718540189e-71
1.931851316786051266968733e-72
9.564105189375942119613262e-74
4.575822899181514949834761e-75
2.114987817558669127009743e-76
9.440756136811586521721343e-78
4.068168282719806120716313e-79
1.691621920575155699735747e-80
6.784603976763331474407235e-82