# geometry NO_DATA 660
#  x  y  z
1.698378838539692070597198 0.04149270152285426671578961 0.8431138629831617103960184
1.696757677079384629692527 -0.01666666666666666296592325 0.8441251893011192386495622
1.698378838539692292641803 0.008159368189520944253390056 0.8431138629831617103960184
1.686750684144790568552708 -0.003347319202521225559726625 0.8467576770793844298523823
1.67836485267050439240677 -0.03343832961523925118019207 0.8483788385396922038239609
1.67836485267050439240677 0.02674369121019680786699446 0.8483788385396922038239609
1.696120381575025426457159 -0.04675767707938469769368695 0.8434878937967599243918926
1.686113388640431143272735 -0.04675767707938469075479304 0.8461203815750251155947126
1.686113388640431143272735 0.04675767707938469769368695 0.8461203815750251155947126
1.696120381575025426457159 0.04675767707938469075479304 0.8434878937967598133695901
1.747513216214493514399919 0.03889842897244830122183146 0.8413852127579547479641064
1.745026432428987028799838 -0.01666666666666666990481716 0.8419624307007176344797017
1.747513216214493514399919 0.005565095639114975289984955 0.8413852127579547479641064
1.730596222492623015298818 -0.01219375320606125301381439 0.8427899756986843016193234
1.718652796341765709442484 0.01169309909565371952133717 0.8430403027538879712210473
1.744535773121750565906041 -0.04502643242898705933097148 0.8414717713934811715859041
1.716416339611463115488732 -0.04055351896838164243996872 0.8426442717059254849942818
1.727869106455083514362059 -0.04502643242898705933097148 0.8419032853434852414764578
1.730105563185386330360416 0.04055351896838163550107481 0.8422993163914478387255258
1.715925680304226208505725 0.0455270865393945789456609 0.8421536123986889110781817
1.744535773121750565906041 0.04502643242898705239207757 0.8414717713934811715859041
1.702236456730302771589436 0.04026211098286414796776356 0.8424985677131666683692401
1.704472913460605365543188 0.01140169111013624066164329 0.8428945987611291545960057
1.702236456730302771589436 -0.01745872876259166317503002 0.8424985677131666683692401
1.782727717635617992186781 -0.01518510713655872937377644 0.847912824772176554333214
1.76949462165954374270882 0.0139738757411279578002361 0.8458256495443532418931909
1.782727717635617992186781 0.0431328586188146484436956 0.8479128247721767763778189
1.767407446431720430268797 -0.04582564954435336401772361 0.8448488230439071822175379
1.767407446431720430268797 0.04582564954435336401772361 0.8448488230439071822175379
1.752087175227823090395418 0.03969764608781460590858359 0.8417848213156379211241642
1.754174350455646180790836 0.01053866321012791353040061 0.8427616478160838697775148
1.752087175227823090395418 -0.01862031966755877190888846 0.8417848213156379211241642
1.5490034569334483194325 0.0437499396504834742183121 0.894746482717035052090182
1.548006913866896816500685 -0.01666666666666665602702935 0.8958784267586900051938414
1.5490034569334483194325 0.01041660631715014308229517 0.894746482717035052090182
1.542654912973143943588639 0.005962664879161224187886781 0.8980069138668965722516191
1.538299455145942795653013 -0.02537758232106878189537902 0.8990034569334481862057373
1.538299455145942795653013 0.03730291207939122333225868 0.8990034569334481862057373
1.547245595011100149918093 -0.04800691386689666384501862 0.8951171079028933386112499
1.541893594117347499050652 -0.04800691386689666384501862 0.89724559501110001669133
1.541893594117347277006047 0.04800691386689668466170033 0.89724559501110001669133
1.547245595011100149918093 0.04800691386689668466170033 0.8951171079028934496335523
1.594343232214740613272852 0.02083684719794722320362901 0.8764936149832066591969237
1.588686464429481137727862 -0.01666666666666666296592325 0.8797616558137140163609047
1.594343232214740613272852 -0.0124964861353861096671114 0.8764936149832067702192262
1.574665355421499324251045 -0.01137555134929720337955139 0.8860409067707961661142235
1.566301014198776764274612 0.005353131096147606057811252 0.8890521168973709587035614
1.587685148196610551707408 -0.03868646442948091984659342 0.8787603395808437634073584
1.563655456540091970296658 -0.03339534911211146372966851 0.8895691874478490746014359
1.571018481529943944252636 -0.03868646442948091984659342 0.8855566610884039180362493
1.573664039188628738230591 0.03339534911211148454635023 0.8850395905379256911160724
1.562654140307221384276204 0.04470888468263056747531436 0.8885678712149787106255872
1.587685148196610995796618 0.03868646442948092678548733 0.878760339580843652385056
1.552645557658684616342271 0.04045191046621735703192613 0.8930974681249019830886482
1.555291115317369410320225 0.01240969245025348027811063 0.8925803975744237561684713
1.552645557658684616342271 -0.01563252556571041035349268 0.8930974681249019830886482
1.646978460872626115474304 -0.01316445577989005383257037 0.8547726445707619635783203
1.648489230436313235372836 0.01714733842606958394427785 0.8550129804504634778439254
1.648489230436313235372836 -0.04347624998584968813997165 0.8550129804504634778439254
1.62549100247032929367208 -0.03836688211880032867151513 0.8618458749310367039697667
1.637851879760083395609627 -0.04697846087262630421221843 0.859291190997512055460561
1.610335105367349584071235 -0.04138842124617402723485426 0.8680769634182496918839433
1.610335105367349584071235 0.04138842124617402723485426 0.8680769634182496918839433
1.62549100247032929367208 0.03836688211880033561040904 0.8618458749310367039697667
1.637851879760083173565022 0.04697846087262630421221843 0.859291190997512055460561
1.634617583582872457625967 -0.00805508791284068915994343 0.857327328504286612087526
1.623767475856805475586953 0.0136451275392929730762015 0.8601223483175127748623368
1.608611578753825543941502 -0.001182950564867037146488116 0.866353436804725651754211
1.604305789376912816379672 0.02353880401464032018354899 0.8697895054787125879158793
1.604305789376912816379672 -0.02590470514437439447652523 0.8697895054787126989381818
1.659171711713586461200975 -0.04814974233491163546627689 0.8525120379815135374101942
1.652512037981513914886023 -0.04814974233491163546627689 0.8542631434249019495297262
1.652512037981513914886023 0.0481497423349116562829586 0.8542631434249019495297262
1.659171711713586461200975 0.0481497423349116562829586 0.8525120379815135374101942
1.664244476296689700944853 -0.03483039487076620283056982 0.8509251288325441198168164
1.658509931397161185628875 -0.003347319202521220789237066 0.8518502576650883728603958
1.664244476296689700944853 0.02813575646572376298681917 0.8509251288325441198168164
1.651850257665088417269317 -0.01316445577989005383257037 0.8536013631084766739576253
1.650925128832544164225737 0.01831861988835493254557107 0.8544273397193207220112754
1.650925128832544164225737 -0.04464753144813503327181792 0.8544273397193207220112754
1.799685421140949426188627 -0.01608279179249387513817027 0.8506065162961367054350603
1.799842710570474624276471 0.01693596268178901645407031 0.8507411643036979498333494
1.799842710570474624276471 -0.0491015462667767771387517 0.8507411643036979498333494
1.798496315107705356695078 -0.04968542114094955108871687 0.8504492268666116183695181
1.798496315107705356695078 0.04968542114094957190539859 0.8504492268666116183695181
1.798339025678180158607233 -0.01666666666666665602702935 0.8503145788590504849935314
1.79714991964493586706908 0.01365929688207752693007713 0.8501572894295251758833842
1.79714991964493586706908 0.04699263021541086327026449 0.8501572894295252869056867
1.842099410658460501011291 -0.0005401665858865480627018507 0.8659638393819296675602004
1.846049705329230405936869 0.02489257740590705703098706 0.8700767947515499756150348
1.846049705329230405936869 -0.02597291057768014860274164 0.8700767947515499756150348
1.813466155305745175496668 -0.04161211848290436582376017 0.8547000779806178671904604
1.82988917588463384511499 -0.04209941065846026925223455 0.8625196819332299202898184
1.800749783309848028878264 -0.04951270782444409934708318 0.8510417207469342937287138
1.800749783309848028878264 0.04951270782444412016376489 0.8510417207469345157733187
1.813466155305744731407458 0.04161211848290438664044188 0.8547000779806178671904604
1.829889175884633623070386 0.04209941065846026925223455 0.8625196819332299202898184
1.825676390079571831392968 -0.01617937449111075953744887 0.8581442354293173924162375
1.813203664171452844655619 0.008766077325126950259281955 0.8544375868463257583940162
1.800487292175555698037215 -0.01608279179249386819927636 0.8507792296126421849322696
1.80024364608777798224537 0.01676324936528356124298966 0.8508275209619506895819541
1.80024364608777798224537 -0.0489288329502713184582241 0.8508275209619506895819541
1.88100633791595628352411 -0.01464854494338214963011779 0.8956548828593382527429867
1.872020844668970784852036 0.009994554108627951363730268 0.8913097657186767053261178
1.88100633791595628352411 0.03463765316063804888813138 0.8956548828593382527429867
1.867675727528309126412864 -0.04130976571867676222504784 0.8870514662330616362240221
1.867675727528309126412864 0.04130976571867676916394174 0.8870514662330616362240221
1.854345117140661969301618 0.02410293246612355694269425 0.8784480496067850197050575
1.85869023428132362774079 -0.0005401665858865399311855571 0.8827063490924000888071532
1.854345117140661969301618 -0.02518326563789664157555492 0.87844804960678513072736
1.398950775731204299034971 0.04347209053224757729916305 0.9445213148010431769563411
1.397901551462408464843179 -0.01666666666666666296592325 0.9456868209973278149860221
1.398950775731204299034971 0.01013875719891423922425222 0.9445213148010431769563411
1.393244090281150704413449 0.00735174430415067112903893 0.9479015514624082872074951
1.389635853368688334086301 -0.02388314049159104626718353 0.9489507757312042324215895
1.389635853368688112041696 0.03858662909989238332109096 0.948950775731204121399287
1.397111476959513431950199 -0.04790155146240837602533702 0.9448967464944330041376475
1.392454015778255227431259 -0.04790155146240838296423092 0.947111476959513365336818
1.392454015778255227431259 0.04790155146240838296423092 0.9471114769595130322699106
1.397111476959513431950199 0.04790155146240838296423092 0.9448967464944326710707401
1.444735375445370451075178 0.02368531906367122435996819 0.9289499436183006331191336
1.439470750890740946559276 -0.01666666666666668031315801 0.9315780349772060375812543
1.444735375445370451075178 -0.009648014269662115449666118 0.9289499436183006331191336
1.425378146761425046662453 -0.01151854159196562948919151 0.9368966883533904610459331
1.416550167186738429236925 0.00613741755740773026195356 0.9395872503706694800484911
1.43856250103819593988419 -0.03947075089074105619380006 0.9306697851246608088615631
1.413976104649387721678977 -0.03432262581604000883928052 0.939946582442939382318059
1.421895834371529332429418 -0.03947075089074106313269397 0.9363477705731153566404146
1.424469896908879817942761 0.03432262581604001577817442 0.9359884385008452323262418
1.413067854796842492959286 0.04485187492529897623771973 0.9390383325903943756429726
1.43856250103819593988419 0.03947075089074104925490616 0.9306697851246609198838655
1.402574062537350840784711 0.04042241399513816363375796 0.9429964765324885256347898
1.405148125074701326298054 0.01223720573650588158698405 0.942637144460218401320617
1.402574062537350840784711 -0.01594800252212642127647158 0.9429964765324886366570922
1.491473659736630263950019 -0.008259235355216075491480154 0.9127300559190949513777014
1.495736829868315354019614 0.01654775771474758030987751 0.9126706014431352764759708
1.495736829868314909930405 -0.03306622842517974170117867 0.9126706014431352764759708
1.47510411627044923932317 -0.0299784783115089638327877 0.9169637898671521014648533
1.486023192224555034002265 -0.04147365973663032223672786 0.915419914810316592834738
1.462700619735466833759574 -0.03850481857487864090217045 0.9214745704885987098720079
1.462700619735466833759574 0.03850481857487865477995825 0.9214745704885990429389153
1.47510411627044923932317 0.02997847831150897771057551 0.9169637898671521014648533
1.486023192224555034002265 0.04147365973663033611451567 0.915419914810316592834738
1.48055458378252424722632 -0.005171485241545301092536135 0.9142739309759303489855142
1.473898677960102876483006 0.008140326403296999774328313 0.915758351556806182713899
1.46149518142512135909783 0.0008812348395968472867037513 0.9202691321782530131656586
1.455747590712560546322152 0.02271938674780882294612638 0.9232954922188240098890333
1.455747590712560546322152 -0.02095691706861513292636801 0.9232954922188240098890333
1.517141149073383044054708 -0.04544117012469776201166738 0.9058264833004688876272326
1.505826483300469087467377 -0.04544117012469776201166738 0.910030198956194191772795
1.505826483300469087467377 0.04544117012469776201166738 0.9100301989561943027950974
1.517141149073382822010103 0.04544117012469776895056128 0.905826483300468998649535
1.524908746483478960698221 -0.02281183857886987659258082 0.9022794149376510697280196
1.515873495648216051634449 0.005962664879161217248992877 0.9045588298753021172515787
1.524908746483478738653616 0.03473716833719231456001353 0.9022794149376510697280196
1.504558829875302095047118 -0.00825923535521607722620363 0.9087625455310274213971411
1.502279414937651047523559 0.02051526810281501661537007 0.9106868462491016780191444
1.502279414937651047523559 -0.03703373881324717453722428 0.9106868462491016780191444
1.897894532321277250019875 -0.0120404786997464503112143 0.9044185616621823742278252
1.898947266160638358556412 0.01918738695486443129878396 0.9056789218062812896192781
1.898947266160638358556412 -0.0432683443543573353906595 0.9056789218062812896192781
1.895611209881619352302096 -0.04789453232127753590230412 0.9033658278228211546689863
1.895611209881618908212886 0.04789453232127755671898584 0.9033658278228211546689863
1.894558476042258021720954 -0.01666666666666666296592325 0.9021054676787222392775334
1.89227515360259990195857 0.007889086429905491429370734 0.9010527338393610197186945
1.89227515360259990195857 0.04122241976323882256538766 0.9010527338393610197186945
1.935687388292370636477813 0.008479112883634261702003876 0.9268855014827798166621164
1.942843694146185296034446 0.02749983450933815576355812 0.9323020854041157434721754
1.942843694146185296034446 -0.01054160874206962195120951 0.9323020854041155214275705
1.919662100873328558492403 -0.02707470772959149132863566 0.9173080459142912701508976
1.932022427258605734579078 -0.03568738829237055876220097 0.9255745954080520920825847
1.91015174006047638854966 -0.04138731943722093187254529 0.9124648340439366345222538
1.91015174006047638854966 0.0413873194372209388114392 0.9124648340439366345222538
1.919662100873328558492403 0.0270747077295914809202948 0.9173080459142912701508976
1.932022427258605734579078 0.03568738829237055876220097 0.9255745954080520920825847
1.923327061907093460391138 -0.008053986103887607675422267 0.9186189519890191057527318
1.918123041375630943861097 0.002354054959037209411587543 0.9157689864165938775641962
1.908612680562778773918353 -0.0120404786997464572501082 0.9109257745462391309132499
1.904306340281389120505651 0.01268017407080780992179037 0.9089325282483097234731417
1.904306340281389342550256 -0.03676113147030071748311286 0.9089325282483097234731417
1.963267068380116997516893 -0.03491004856159578284557909 0.9481771169417125832978854
1.959367858777489646016079 -0.005222481344837164203565028 0.9463542338834250999823894
1.963267068380116997516893 0.02446508587192145617317252 0.9481771169417123612532805
1.957544975719202273722885 -0.04635423388342528594474601 0.9440833400501962291428981
1.957544975719202273722885 0.04635423388342528594474601 0.9440833400501962291428981
1.951822883058287771973482 0.03816668010039288294610316 0.9399895631586800970325157
1.953645766116574922222071 0.008479112883634266906174304 0.942260456991908967872007
1.951822883058287771973482 -0.02120845433312434219486065 0.9399895631586799860102133
1.342648874397170732919449 0.01307700391870518508152799 0.9704281295215342328930319
1.335297748794341377021055 -0.01666666666666664908813544 0.9741873763565230825989261
1.342648874397170732919449 -0.02025632941462814778921242 0.9704281295215342328930319
1.32097846672533680845163 -0.01197189747134217233104359 0.9852977487943412882032135
1.314010310259161817825202 -0.03060297959901696340789812 0.9926488743971706441016067
1.314010310259161817825202 0.006659184656332598796490974 0.9926488743971706441016067
1.335152206086070325596893 -0.03529774879434143669554302 0.9740418336482520311747635
1.320832924017065757027467 -0.03529774879434143669554302 0.9851522060860702367790509
1.320832924017065757027467 0.03529774879434145751222474 0.9851522060860702367790509
1.335152206086070325596893 0.03529774879434145751222474 0.9740418336482520311747635
1.368866292589232536158761 -0.04479293597708798591039425 0.9568570871038236669292587
1.356857087103823689133719 -0.04479293597708797897150035 0.9624133813326720687797433
1.356857087103823911178324 0.04479293597708797897150035 0.9624133813326720687797433
1.368866292589232536158761 0.04479293597708797897150035 0.9568570871038235559069562
1.376621942982273694155992 -0.02077452500627065268279381 0.952603532011455866879146
1.367216269508320758419018 0.007351744304150670261677192 0.9552070640229120002118179
1.376621942982273694155992 0.03547801361457198626725429 0.952603532011455866879146
1.355207064022912355483186 -0.005554078208969596454347428 0.9607633582517604020623025
1.352603532011456444195119 0.02257219110145171694914445 0.9637161204691528926247202
1.352603532011456000105909 -0.03368034751939091159256279 0.9637161204691528926247202
1.993054998913934783288937 -0.001395874969675203053354196 0.9645803969345605466401139
1.996527499456967280622166 0.02499245727759319760097334 0.9687432922400237567117642
1.996527499456967280622166 -0.02778420721694360717712868 0.9687432922400238677340667
1.985582925451215619006007 -0.04305499891393507749803859 0.9611078963915282713514898
1.985582925451215619006007 0.04305499891393507749803859 0.9611078963915280493068849
1.982110424908183121672778 -0.01666666666666666990481716 0.9569450010860648392352346
1.974638351445463735345243 -0.01216748243090210075678659 0.9534725005430322308797031
1.974638351445463735345243 0.02116585090243124425701815 0.9534725005430322308797031
2.030264079082551464949802 -0.01536520237952081376076041 0.9956292814620725240004617
2.021688117348166890963057 0.009226693877957667724865054 0.9912585629241450480009235
2.030264079082551464949802 0.03381859013543614400632009 0.9956292814620725240004617
2.017317398810239303941216 -0.04125856292414514792099567 0.986598010643901623950569
2.017317398810239303941216 0.04125856292414514792099567 0.986598010643901623950569
2.004370718537927587021841 0.02319602128780328190171822 0.9775667398257306128783739
2.008741437075855174043681 -0.001395874969675197198662464 0.9822272921059741479510308
2.004370718537927587021841 -0.02598777122715368453897966 0.9775667398257306128783739
1.296180844371288332084191 0.01965993119349176629362397 1.02347908682220323228762
1.292361688742576841804066 -0.0166666666666666664353702 1.031010809968034180883478
1.296180844371288332084191 -0.01367340213984156484239296 1.02347908682220323228762
1.288349646538084591895768 0.008642582257682475399551691 1.042361688742576397714856
1.288156759962304054312199 -0.01705243981822759241628873 1.046180844371288110039586
1.288156759962304054312199 0.03433760433359255015428602 1.046180844371288110039586
1.292630027968839634411324 -0.04236168874257673772065758 1.031279149194296973490736
1.288617985764347384503026 -0.04236168874257673772065758 1.042630027968839412366719
1.288617985764347606547631 0.04236168874257674465955148 1.042630027968839190322115
1.292630027968839634411324 0.04236168874257674465955148 1.031279149194296973490736
1.304908037583256907865348 -0.0482483349315486892416871 1.002560652985594602526476
1.302560652985594646935397 -0.0482483349315486823027932 1.007876440877718771105265
1.302560652985594646935397 0.0482483349315486823027932 1.007876440877718771105265
1.304908037583257129909953 0.0482483349315486892416871 1.002560652985594602526476
1.30557060172955008425788 -0.04355356573622420901514829 1.000875832534225517989057
1.304099049666113563361591 -0.01197189747134218967827834 1.001751665068451035978114
1.30557060172955008425788 0.0196097707935398296585916 1.000875832534225517989057
1.30175166506845130243164 -0.006035090882418304991663405 1.007067452960575426601508
1.300875832534225562397978 0.02554657738246371434520654 1.01150740831847407719124
1.300875832534225562397978 -0.03761675914730031738963945 1.01150740831847407719124
2.047535096021742440086655 -0.0111175381773324331857733 1.005239468222924203999469
2.048767548010871131225485 0.01975089117774361108237358 1.006781580478462778671656
2.048767548010871131225485 -0.04198596753240847745392017 1.006781580478462778671656
2.045047561616516684779299 -0.04753509602174270376462317 1.004007016233795734905243
2.045047561616516684779299 0.04753509602174270376462317 1.004007016233795734905243
2.043815109627387993640468 -0.01666666666666666296592325 1.002464903978257382277661
2.041327575222162238333112 0.006761789899700375652824569 1.001232451989128691138831
2.041327575222162238333112 0.0400951232330336998499476 1.001232451989128691138831
2.084175052647775139291753 0.01075415161813164828530365 1.029535356494623021816892
2.092087526323887392010192 0.0282625375992409597070143 1.035333291960910173656885
2.092087526323887392010192 -0.006754234362977650125980933 1.035333291960910173656885
2.073398389031586575015353 -0.0209890641414543811793525 1.022556669717144206543935
2.083472061445092116116484 -0.03417505264777596918346347 1.029674084606382544748726
2.064644196041031776189811 -0.03681401149367839742421182 1.017418760285699441681118
2.064644196041031776189811 0.03681401149367839742421182 1.017418760285699441681118
2.073398389031586575015353 0.02098906414145436383211774 1.022556669717144206543935
2.083472061445092116116484 0.03417505264777596918346347 1.029674084606382544748726
2.074101380234269598190622 -0.003480678160345084069110522 1.022417941605384683612101
2.071940181496875865718721 0.0008417193144426224349352594 1.021098462182433497247303
2.063185988506321066893179 -0.01111753817733244359411415 1.015960552750988732384485
2.056592994253160000539538 0.009029806649679294333621371 1.012142122742495153886466
2.056592994253160444628747 -0.03126488300434416417461492 1.012142122742494931841861
2.109019074479047350934025 -0.03969323849545185189935381 1.048712312974499738515988
2.106441067777773845648426 -0.008935279213119366736872706 1.047424625948998988533845
2.109019074479047350934025 0.0218226800692131184256084 1.048712312974499294426778
2.105153380752273761800097 -0.04742462594899915506729826 1.045756055450232091530438
2.105153380752273761800097 0.04742462594899915506729826 1.045756055450231869485833
2.10128768702549972857696 0.04151211090046415252974299 1.042799797925964222500284
2.102575374051000256514499 0.01075415161813166389781493 1.044468368424731341548295
2.10128768702549972857696 -0.02000380766420082473411313 1.042799797925964444544888
1.29472948819270872178322 -0.001098163291507072260658195 1.063054763494870602613673
1.297364744096354272073768 0.02696465823453507784646099 1.068203759278804954035991
1.297364744096354494118373 -0.02916098481754921672992609 1.068203759278804954035991
1.293352701891862244210074 -0.04472948819270881198884027 1.060419507591225052323125
1.293352701891862244210074 0.04472948819270881198884027 1.060419507591225052323125
1.290717445988216471874921 -0.01666666666666666990481716 1.055270511807290922945413
1.28934065968737021634638 0.003372070450391288082281349 1.052635255903645372654864
1.28934065968737021634638 0.0367054037837246174835748 1.052635255903645372654864
1.312766283446459070205492 -0.03511954229188071763267942 1.097885825738339260482235
1.3095544031157200226545 -0.006014557481868167132521563 1.095771651476679098280442
1.312766283446458848160887 0.02309042732814438683708325 1.097885825738339260482235
1.307440228854059416363498 -0.04577165147667922040497501 1.089003410759252554740328
1.307440228854059416363498 0.04577165147667922040497501 1.089003410759252554740328
1.302114174261660206610713 0.02800682151850548279314879 1.080120995780165848998422
1.304228348523320812901716 -0.001098163291507067707009071 1.086889236497592392538536
1.302114174261660428655318 -0.03020314810151961820716693 1.080120995780165848998422
2.14126855856849473980219 0.001829316834760626175881981 1.067979433182218329534408
2.145634279284247103447569 0.02643120873658892644453289 1.072861704217179523723757
2.145634279284247103447569 -0.02277257506706768103166283 1.072861704217179523723757
2.132833306344354529215934 -0.04126855856849495629568025 1.063613712466465965889029
2.132833306344354085126724 0.04126855856849497017346806 1.063613712466465965889029
2.128467585628602165570555 -0.0166666666666666525575824 1.058731441431504771699679
2.120032333404461510895089 -0.0176667206446243924000683 1.054365720715752186009695
2.120032333404461510895089 0.01566661268870893700122515 1.054365720715752186009695
2.173848595902498903598143 -0.02280474668104612301355871 1.096653342583544743504831
2.16694428407593164820355 0.003835271819377393531791398 1.09330668516708984228103
2.173848595902498903598143 0.03047529031980091007714151 1.096653342583544743504831
2.163597626659476524935144 -0.04330668516709018645016727 1.089234667667591915929393
2.163597626659476969024354 0.04330668516709018645016727 1.089234667667591915929393
2.153346657416455034450564 0.02846933533518413231289124 1.081815992751638866309349
2.156693314832909713629761 0.001829316834760614466498518 1.085888010251137014705591
2.153346657416454590361354 -0.02481070166566289730836203 1.081815992751638866309349
1.339763425570640764661334 0.005081435516764730431216179 1.121110625521074766197671
1.344881712785320537761891 0.02817819442073896812894773 1.126866389398110790409646
1.344881712785320537761891 -0.01801532338720950726651537 1.126866389398110790409646
1.333541100711052695970693 -0.0397634255706408937247609 1.115992338306394993097115
1.333541100711053140059903 0.03976342557064091454144261 1.11599233830639521514172
1.328422813496373366959347 -0.01666666666666665602702935 1.11023657442935896888514
1.322200488636785742357915 -0.01625113191122725536663651 1.105118287214679417829188
1.322200488636785742357915 0.01708220142210607750410389 1.105118287214679417829188
1.365563559114894021107034 -0.03206397588704938683701329 1.147627535001943144266079
1.361340477054532316358859 -0.003475572549829845404867346 1.145255070003886155305395
1.365563559114894021107034 0.02511283078738969776200207 1.147627535001943144266079
1.358968012056475327398175 -0.04525507000388620526543093 1.141834919426992112079233
1.358968012056475327398175 0.04525507000388621914321874 1.141834919426992112079233
1.352372464998056855733921 0.03366983885398426579182996 1.136042303852041079892388
1.35474492999611406673921 0.005081435516764727829130965 1.139462454428935345163154
1.352372464998056855733921 -0.0235069678204548118682915 1.136042303852041079892388
2.195813403978215561096476 -0.007220485318184623191317684 1.108909686696025298502377
2.19790670198910786936608 0.02192625199336426661256283 1.111539479359374027467311
2.19790670198910742527687 -0.0363672226297335199340921 1.111539479359374027467311
2.191491004565462752395888 -0.04581340397821555276980376 1.106816388685132990232773
2.191491004565463196485098 0.04581340397821555276980376 1.106816388685133212277378
2.189397706554570888215494 -0.01666666666666666296592325 1.10418659602178426126784
2.185075307141818523604115 -0.0003513242024070472040338242 1.102093298010891952998236
2.185075307141818523604115 0.03298200913092628333567191 1.102093298010891952998236
2.239450025725899351414228 -0.003867609213364107349081289 1.143317634939263527371622
2.229748560454054562285364 0.01610099399849580087407119 1.136635269878526699471877
2.239450025725899351414228 0.03606959721035569998992543 1.143317634939263527371622
2.223066195393317734385619 -0.03663526987852656208177748 1.131374058946837735106783
2.223066195393318178474829 0.03663526987852657595956529 1.131374058946837735106783
2.206682365060737005535429 0.0127481178936752793939835 1.119430482954411942841944
2.213364730121473389345965 -0.00722048531818461625242378 1.124691693886100907207037
2.20668236506073656144622 -0.02718908853004452577661887 1.119430482954411942841944
1.392646264085876994798241 0.0001122299931319223342818248 1.165743184244022900841742
1.396323132042938564012502 0.02609182741234184269019103 1.170455764616860516724728
1.396323132042938564012502 -0.02586736742607799802162738 1.170455764616860516724728
1.386252012434690428221984 -0.04264626408587658679127941 1.162066316286961331627481
1.386252012434690428221984 0.04264626408587658679127941 1.162066316286961109582876
1.382575144477628636963118 -0.0166666666666666664353702 1.15735373591412349369989
1.376180892826442070386861 -0.01082930846395326399123071 1.153676867957061702441024
1.376180892826442070386861 0.02250402486938006887950969 1.153676867957061702441024
1.423850976176251004190476 -0.02254830410066485657516466 1.196399280276915888521216
1.417326567672751780335716 0.003583589786500059829604803 1.192798560553831599406749
1.423850976176251004190476 0.02971548367366498924480034 1.196399280276915888521216
1.413725847949667713265853 -0.04279856055383159108007618 1.188122061940148466163691
1.413725847949667713265853 0.04279856055383159108007618 1.188122061940148466163691
1.403600719723084200296626 0.02624412388029684350954085 1.179844843603381265850771
1.407201439446168489411093 0.0001122299931319176993175374 1.184521342217064177049224
1.403600719723084200296626 -0.02601966389403300231042415 1.179844843603381265850771
2.249802520618668921770222 -0.01607267592504055958579912 1.15049447475214483560535
2.249901260309334460885111 0.0170631780269610636158184 1.15069273043229203246085