# geometry NO_DATA 884
#  x  y  z
1.643005319209157377713382 0.007936846140115168604656226 0.7649315269309580056500408
1.636010638418314400155396 -0.01666666666666666296592325 0.7719737422792146697148041
1.643005319209157377713382 -0.0253964871932181625313607 0.7649315269309580056500408
1.620088302367312493856844 -0.0151780054353371184061583 0.7860106384183143113375536
1.611160647107153565116278 -0.03452197718698468004161484 0.7930053192091570668509348
1.611160647107153565116278 0.00416596631631044496402172 0.7930053192091572888955398
1.629043153151713108073295 -0.03601063841831422807082674 0.7650062570126134886550062
1.613120817100711423819348 -0.03601063841831422807082674 0.7790431531517130192554532
1.613120817100711423819348 0.03601063841831423500972065 0.7790431531517130192554532
1.629043153151713108073295 0.03601063841831423500972065 0.7650062570126134886550062
1.692213540812593564055533 0.003244008328037647440750257 0.7610304675154441200746191
1.684427081625186950475381 -0.01666666666666666990481716 0.7688355449766122173826943
1.692213540812593564055533 -0.03008932500529569800673535 0.7610304675154442310969216
1.674890024388516529540993 -0.002407447806674018440931118 0.7772974721951905197059318
1.673139426339252722186757 0.001093748291853532082773537 0.7779543219526008357433966
1.676751879967368630275359 -0.03442708162518685888198178 0.7611603433187941192272774
1.666009816909256535666373 -0.02016786276519421522435138 0.7710470352434977137079386
1.660085213300702022820587 -0.03442708162518685888198178 0.762714983828269077470452
1.667214822730698431385576 0.02016786276519421869379833 0.7696222705373723105282124
1.658334615251438215466351 0.03574078114000735217903326 0.7633718335856793935079168
1.676751879967368630275359 0.03442708162518686582087568 0.7611603433187938971826725
1.657129609429996541791752 0.007666988861808295314947959 0.7647965982918046856653405
1.664259218859992728312136 -0.01140712561153239303080031 0.7717038850009079187231009
1.657129609429996541791752 -0.03048124008487308050918685 0.7647965982918046856653405
1.741986305533291146119268 0.002360128734212177566142987 0.7603738232009209507822334
1.733972611066582292238536 -0.01666666666666665602702935 0.7681663699003971057521767
1.741986305533291146119268 -0.03097320459912115964140611 0.7603738232009209507822334
1.725288368888791890043422 -0.0007018176889138782884383638 0.7759901865777059093431944
1.724617821177710341729039 0.0006392777332489348214583647 0.776021456555538335919664
1.726301007449384528058545 -0.03397261106658224644183619 0.7604947662831992305498829
1.716635396688834136469382 -0.01800776208882947510003802 0.7684123443958400523357
1.709634340782717920603773 -0.03397261106658225338073009 0.7607094708008097505569367
1.71761676527159412586343 0.01800776208882949244727278 0.7683185829605079231185982
1.708963793071636150244785 0.0340351510222472314337594 0.7607407407786421771334062
1.726301007449384528058545 0.033972611066582260319624 0.7604947662831992305498829
1.707982424488876382895342 0.002852077725098015222038317 0.7608345022139744173728104
1.715964848977752588154999 -0.01451640663048254023537176 0.7684436143736725899344719
1.707982424488876382895342 -0.03188489098606311217265485 0.7608345022139744173728104
1.792063513212289294074253 0.003360247808684749606933373 0.7612967345963952414678033
1.78412702642457876578419 -0.0166666666666666525575824 0.7687436371166317394809653
1.792063513212289294074253 -0.02997308552464858499853051 0.7612967345963952414678033
1.775536902378880066422084 -0.0005135814247301171125287267 0.7760504838036104136023141
1.774883265120891895350042 0.0007936930912455541272526593 0.7759104279703527007328034
1.776711163214192978898609 -0.03412702642457886292870484 0.7613277739062459525953841
1.76680672249992420930198 -0.01797394118264232162895944 0.7681807294251360440640042
1.760044496547526371443837 -0.03412702642457885598981093 0.7609049220480079700479337
1.768121039168494279536503 0.017973941182642352853982 0.7686346205932248487613379
1.759390859289538200371794 0.03384691475806347882304692 0.760764866214750257178423
1.776711163214192978898609 0.03412702642457887680649264 0.7613277739062459525953841
1.758076542620968130137271 0.002234432425693398671651124 0.7603109750466616745256943
1.766153085241936260274542 -0.01494581566570340330768474 0.7680406735918783311944935
1.758076542620968130137271 -0.0321260637571002122259145 0.7603109750466616745256943
1.842980025486675943469095 0.01061821055518199011236113 0.7676381850685063401584785
1.835960050973351131986533 -0.0166666666666666525575824 0.7732891307642666411936716
1.84298002548667572142449 -0.02271512277815134275837927 0.7676381850685063401584785
1.827192409087492475094905 -0.000868617105050929457291109 0.7780610261925433590590728
1.825444741714958185596629 0.002626717640017907362537386 0.7771819759250597758892809
1.829998255829959008522678 -0.03596005097335121247770218 0.767327335620874295685212
1.817545716934150235033485 -0.02016200141173549176265567 0.7696976113979205891268975
1.813331589163292401067906 -0.03596005097335121941659608 0.7646148665220119378105323
1.821230613944100129586445 0.02016200141173551257933738 0.7720992310491512355952182
1.81158392179075811156963 0.03420195043838428206051105 0.7637358162545284656630429
1.829998255829959230567283 0.03596005097335122635548998 0.7673273356208745177298169
1.80789902478080777292746 0.003435171822490160065122211 0.7613341966032980412393272
1.815798049561615723490604 -0.01410011194922744515167778 0.7688185611304372280017105
1.80789902478080777292746 -0.03163539572094506424626559 0.7613341966032980412393272
1.885260445867867673541696 -0.008318288625417644827075847 0.7935787344932854203705119
1.877262121194005928259685 0.01217251369448636710846046 0.7871574689865706853098004
1.885260445867867673541696 0.0326633160143903686356559 0.7935787344932854203705119
1.870840855687291082176671 -0.0371574689865706714320126 0.7809078142842006409196642
1.870840855687291082176671 0.0371574689865706714320126 0.7809078142842007519419667
1.856421265506714712856251 0.01181562856840144039305418 0.7682368940751160835134215
1.86284253101342933689466 -0.008675173751502562868864743 0.7744865487774861279035576
1.856421265506714712856251 -0.02916597607140657133495409 0.7682368940751160835134215
1.495021455463827919629693 0.02015762756174054037838772 0.825136172097912679035403
1.490042910927655839259387 -0.01666666666666667684371106 0.8301002692446980413265578
1.495021455463827919629693 -0.01317570577159279596179964 0.825136172097912679035403
1.478614658803400594422328 -0.00618983758184396722079601 0.8400429109276555950103216
1.472164951215317429955576 -0.02956608184283297802164014 0.8450214554638277864029305
1.472164951215317429955576 0.01718640667914505051894203 0.8450214554638277864029305
1.485083754319592497239455 -0.04004291092765568937927867 0.8251411126366351433958357
1.473655502195337252402396 -0.04004291092765568244038477 0.8350837543195928081019019
1.473655502195337252402396 0.04004291092765567550149086 0.8350837543195926970795995
1.485083754319592941328665 0.04004291092765567550149086 0.8251411126366351433958357
1.542363472991494788288946 0.004115652569609348429557905 0.8117521795781148519211001
1.534726945982989088079762 -0.01666666666666668031315801 0.8194212992762991421002994
1.542363472991494788288946 -0.02921768076372398270645903 0.8117521795781146298764952
1.523056118731240804464733 -0.006674987836829638851443569 0.8297311065680705866043354
1.519021818487998221058888 0.001393612649655777109905519 0.8323717941616575188845673
1.527106129616279783789423 -0.03472694598298913665201937 0.8118004829095900598545654
1.514025979073079897219145 -0.02473526715315209345558145 0.8274249918936185110851511
1.510439462949613176334651 -0.03472694598298914359091327 0.8171634879333224965591853
1.515435302364531722218999 0.02473526715315206570000583 0.8221102902013615043586015
1.506405162706370592928806 0.04000832117016295264022574 0.8198041755269092067948122
1.527106129616279783789423 0.03472694598298912277423156 0.8118004829095900598545654
1.504995839414918323839743 0.02012303780424781057822869 0.8251188772191664355659668
1.509991678829837091768695 -0.003218616699248479096073794 0.830065679487205443365383
1.504995839414918323839743 -0.02656027120274476183148238 0.8251188772191664355659668
1.591918734504176757837968 0.0007988879613403536460516929 0.8088801534571637974480041
1.583837469008353204813488 -0.01666666666666668378260496 0.8173181784848466691073554
1.591918734504176757837968 -0.03253444537199298713936457 0.8088801534571637974480041
1.574898902593077076872419 -0.00121046616388576877380856 0.8261093687569625032551812
1.574041601673624279911223 0.0005041356750198385926892142 0.8264625340013954657436557
1.575822146501947074170857 -0.03383746900835320203793088 0.8093028559784405384647243
1.566313501422233800397521 -0.0183812685055722846438897 0.8188849875460961769135793
1.559155479835280466716085 -0.03383746900835319509903698 0.8105164997952570837824737
1.566883580086670946229788 0.01838126850557225688831409 0.8180940462505565946571551
1.55829817891582766975489 0.03454379949721907150372857 0.8108696650396902683155531
1.575822146501947074170857 0.03383746900835318816014308 0.8093028559784407605093293
1.557728100251390523922623 0.003932506083839298893778391 0.8116606063352296285273724
1.565456200502781003436326 -0.01394462674671312352181474 0.8192381527905290283797513
1.557728100251390523922623 -0.03182175957726551818183225 0.8116606063352295175050699
1.601787095067789934432767 -0.04809363113670440947888807 0.8010427644521249668230212
1.601042764452124789187337 -0.04809363113670440947888807 0.8011901405952850385716602
1.601042764452124789187337 0.04809363113670440947888807 0.8011901405952850385716602
1.601787095067789934432767 0.04809363113670440947888807 0.8010427644521249668230212
1.6024418456629776486011 -0.04660496990537486144967616 0.8009531844316479798351338
1.602650699478960660826488 -0.0151780054353371184061583 0.8019063688632958042390442
1.6024418456629776486011 0.01624895903470062810680652 0.8009531844316479798351338
1.601906368863295959670268 -0.01637191438034616905450314 0.8020537450064560980322881
1.60095318443164824628866 0.01505505008969158092790863 0.8012479367179683453770167
1.60095318443164780219945 -0.0477988788503839190369149 0.8012479367179683453770167
1.895372114869474433618279 -0.0150841996675892472956626 0.8054191186300638793937878
1.897686057434737394444824 0.01362124853521904169206813 0.8038964095643399421220465
1.897686057434737394444824 -0.04378964787039753281394638 0.8038964095643399421220465
1.895438980948647156310471 -0.04537211486947495542310094 0.8031051760648013626564534
1.895438980948647156310471 0.04537211486947495542310094 0.8031051760648013626564534
1.893125038383384417528532 -0.01666666666666667684371106 0.8046278851305252999281947
1.893191904462556696131514 0.007544628563961305878216024 0.8023139425652626721685579
1.893191904462556696131514 0.04087796189729463874895643 0.8023139425652626721685579
1.948836718608142337672007 0.04335645680634027387956309 0.8445197381981979223297685
1.947673437216284719752935 -0.01666666666666666296592325 0.8455149470113122456282895
1.948836718608142337672007 0.01002312347300693580465225 0.8445197381981979223297685
1.938506113318184009841616 -0.001667981129534169219136297 0.8401740944477182893024292
1.930502070811941139893975 0.01434010388295119987900339 0.8338380330710095655888381
1.944406862894948240239046 -0.04767343721628453795391422 0.8422483726899759881590057
1.923002728043374798261311 -0.03267475167915204203872293 0.825461942672447990254625
1.927740196228281632784274 -0.04767343721628453795391422 0.8285314297278203454766299
1.935239538996847530327727 0.03267475167915204203872293 0.8369075201263816987662381
1.919736153722038540792028 0.03500131446286749992147236 0.8221953683511116217630388
1.944406862894948240239046 0.04767343721628454489280813 0.8422483726899759881590057
1.907499342768566030770216 0.003250448128611589659886505 0.8107497908971776912068208
1.914998685537132150358275 -0.01508419966758925076510955 0.8191258812957392665410339
1.907499342768566030770216 -0.03341884746379007731231781 0.8107497908971776912068208
1.955503549832809939701406 -0.04344949191301381019592043 0.8489530417458235334038363
1.954322212297669780767251 -0.01221007508803343723224888 0.8479060834916470890121332
1.955503549832809939701406 0.01902934173694693920086962 0.8489530417458235334038363
1.95327525404349300330864 -0.04790608349164703072542437 0.8467945515408513701416382
1.95327525404349344739785 0.04790608349164705154210608 0.8467945515408513701416382
1.95104695825417673304969 0.04358910308170277358996714 0.8446360613358792068794401
1.952093916508353288463695 0.01234968625672239368740168 0.8457475932866748147276326
1.951046958254176511005085 -0.01888973056825797927626986 0.8446360613358790958571376
1.34488414167339453975103 0.01945857129349791436734307 0.8745744296201035661297851
1.339768283346788546595008 -0.01666666666666666296592325 0.8796134273201430264776945
1.34488414167339453975103 -0.01387476203983542544229124 0.8745744296201035661297851
1.328378445574645683180393 -0.006113008877619175752970992 0.8897682833467883689593236
1.32210446612910836883259 -0.02921462555774103145300735 0.8948841416733941400707408
1.322104466129108590877195 0.01698860780250267127344799 0.8948841416733942510930433
1.334722990881780813055002 -0.0397682833467885160638744 0.874568134855135292937689
1.323333153109637727595782 -0.0397682833467885160638744 0.8847229908817806354193181
1.323333153109637949640387 0.0397682833467885230027683 0.8847229908817806354193181
1.334722990881780813055002 0.0397682833467885299416622 0.874568134855135292937689
1.392338600373162371681701 0.004024562461509610666876569 0.8616859620883473569463717
1.384677200746324388092034 -0.01666666666666666990481716 0.869350881603916936235521
1.392338600373162371681701 -0.02930877087182372567331079 0.8616859620883473569463717
1.373156666097947509186383 -0.006374402630087741029873971 0.8795310687280346595429137
1.369297531076407725691979 0.001343867412991054223828091 0.882046336336583025605762
1.377059388039053589025684 -0.03467720074632438254091937 0.8617330688966460261468683
1.364151399058118663276673 -0.02438493670974545973750836 0.8770376123282273006509513
1.360392721372387203615517 -0.03467720074632438254091937 0.8669045320124082465440551
1.365538853390676710120033 0.02438493670974546667640226 0.8719132560207639714988659
1.356533586350847642165718 0.03970773596342108691104045 0.869419799620956723629206
1.377059388039053811070289 0.03467720074632438947981328 0.8617330688966460261468683
1.355146132018289595322358 0.01939802391013047133672131 0.8745441559284199417589889
1.360292264036579101826874 -0.003643045386623940899012419 0.8795528799367755556914972
1.355146132018289595322358 -0.02668411468337835226738441 0.8745441559284198307366864
1.441935790820455309813042 0.001450201288202981582745044 0.8595144104677476803999525
1.4338715816409104419904 -0.01666666666666666296592325 0.8676608914645564940570921
1.441935790820455309813042 -0.03188313204513035237219754 0.8595144104677476803999525
1.424953326556653632195548 -0.001169843501846659986065369 0.8761231700585003778769533
1.424099280651941912267944 0.0005382483075771213928278902 0.876438967655635003950465
1.425889507059804994781871 -0.03387158164091045448040873 0.8596788168834510468485632
1.416350869069531892563418 -0.01837475847609044976582737 0.8688610600956376828207794
1.409222840393138387327099 -0.03387158164091046141930264 0.8605631879173976095387388
1.416971251975548407031624 0.01837475847609044976582737 0.8681410954773947086238195
1.408368794488426667399494 0.03450317683518000499987011 0.8608789855145322356122506
1.425889507059804994781871 0.03387158164091046141930264 0.8596788168834512688931682
1.407748411582409930886683 0.003850538550365221416443839 0.8615989501327750987869081
1.415496823164820172635814 -0.0139859716181481054386726 0.8691768576927724199165937
1.407748411582409930886683 -0.0318224817866614370642786 0.8615989501327752098092105
1.462940961347676926962436 -0.03518624617335196907985662 0.857702546805265364504578
1.457702546805265564344722 -0.03518624617335196214096271 0.8581585232955781794572658
1.457702546805265564344722 0.03518624617335198295764442 0.8581585232955784015018708
1.462940961347676926962436 0.03518624617335198295764442 0.857702546805265364504578
1.467883705998146881555044 -0.02470941708852926813055895 0.8574068769133239564794735
1.470052168369059497621265 -0.006189837581843953343008202 0.864813753826647824141105
1.467883705998146881555044 0.01232974192484135450564864 0.8574068769133239564794735
1.464813753826647912958947 -0.01575471368604080060760175 0.8652697303169608611383978
1.457406876913324156319618 0.002764865820644508975778564 0.8583188298939498084294542
1.457406876913324156319618 -0.03427429319272611019098207 0.8583188298939496974071517
1.993478450315545602578027 0.01234250209147422575051145 0.8688640517759287362764553
1.986956900631091205156054 -0.0166666666666666664353702 0.8746497013612827275963468
1.993478450315545602578027 -0.02099083124185910712022896 0.8688640517759287362764553
1.978284189487224953296618 -0.0006787556210662737832955971 0.8789629451082909827874801
1.976133028027812876814551 0.003623567297757817814995995 0.8774905392699452466587218
1.963743597131996754256988 -0.03421653191015526507268163 0.8615153013426801731355908
1.97904007943819548742681 -0.03695690063109114548156597 0.8645045843790704065412456
1.969509256865480395504164 -0.01822862086455487307112833 0.8701880124865466470396314
1.969509256865480617548769 0.01822862086455487307112833 0.8701880124865467580619338
1.963743597131996754256988 0.03421653191015526507268163 0.8615153013426801731355908
1.97904007943819548742681 0.03695690063109115242045988 0.8645045843790704065412456
1.955826775939101480616955 -0.04280303970043088102048756 0.8513701843604679631027921
1.954968664510252640553745 -0.01221007508803343896697235 0.8527403687209358373877421
1.955826775939101480616955 0.01838288952436401002543676 0.8513701843604679631027921
1.960734324243736281800921 0.0006787556210662732411945108 0.8614130798648023112917826
1.967358095406068319022097 -0.01392629794573078255703891 0.8687156066482009109108731
2.032544844282262452850318 -0.01140537994843253584431597 0.8939502242306951451666919
2.025347085795088819537568 0.009828401846291037746716768 0.8879004484613901571066208
2.032544844282262452850318 0.03106218364101460960302603 0.8939502242306951451666919
2.019297310025783609432892 -0.03790044846139023482223251 0.8816430249608867564248271
2.019297310025783609432892 0.03790044846139024176112642 0.8816430249608866454025247
2.006049775769304766015466 0.01328604992177331335645452 0.8693358256910782566606599
2.012099551538609976120142 -0.007947731872950256765131272 0.8755932491915816573424536
2.006049775769304766015466 -0.02918151366767382515199358 0.8693358256910782566606599
1.245426255038316387668829 0.02724099311143750659636176 0.9318147380731209850068808
1.240852510076632775337657 -0.0166666666666666664353702 0.9340467515940350518022228
1.245426255038316387668829 -0.006092340221895820202846483 0.9318147380731209850068808
1.232612707471883783938438 0.0001870614571689033505015598 0.9408525100766326199064338
1.228946649828818626914995 -0.02399878195279719905741445 0.9454262550383163432599076
1.228946649828818626914995 0.02437290486713501042048691 0.9454262550383162322376052
1.23596091461720103410471 -0.04085251007663276423542698 0.9291551561346033105692754
1.22772111201245204270549 -0.04085251007663276423542698 0.9359609146172008786734864
1.22772111201245204270549 0.04085251007663277117432088 0.9359609146172008786734864
1.23596091461720103410471 0.04085251007663276423542698 0.9291551561346033105692754
1.292101462949698964521872 0.002710788509760532830061841 0.9106093255600613556310918
1.284202925899398106679428 -0.01666666666666668031315801 0.9184568572045792578251167
1.292101462949699186566477 -0.0306225448235728121837429 0.9106093255600613556310918
1.270884783233324322182511 -0.00996961866548115756281323 0.9308544018988051949037299
1.265465177617551173483434 0.0008695925660647205743605803 0.9354044149485134518329232
1.27628234871058143795608 -0.03420292589939805810717033 0.9105362800157625891017688
1.262116653616958572570184 -0.02750587789821253362210207 0.9319471804665085956642656
1.259615682043914830501308 -0.03420292589939805116827642 0.9194765902279835589894219
1.262964206044507431414559 0.02750587789821253362210207 0.9229338247099884151580795
1.254196076428141681802231 0.04330295199881448869883016 0.9240266032776918159186152
1.27628234871058143795608 0.03420292589939805116827642 0.9105362800157623670571638
1.253348524000592600913251 0.02969143503361923452921189 0.9330399590342117743801964
1.256697048001185423871107 0.003055149701471420072007579 0.9364971935162167415711565
1.253348524000592600913251 -0.02358113563067639611992021 0.9330399590342119964248013
1.327456514401841092265499 0.0001226555602333928769211158 0.9226661411583926275525869
1.326320248871095675013976 -0.002395186621724129747562637 0.9239250622493713205329868
1.324949821445890130178213 -0.000345668228687409651023188 0.9252954896745771984356566
1.32471565955142978054937 0.0001226555602333868867041128 0.9254069960088041613133214
1.318259845747428160578352 -0.0191845088486241981129421 0.9158646591257038060973628
1.315142013528501685470928 -0.03572851995505745004155784 0.9074699980122536979720849
1.316555160332439911030633 -0.01713499045558748018480699 0.9178214265329749377286817
1.308728919103232524179248 -0.03345598889356675431638877 0.9096495170750804604153927
1.316889418322222393697984 0.01713499045558745242923138 0.91723508655090957297773
1.308494757208772174550404 0.03367900156202072864397579 0.9097610234093074232930576
1.323202416652169421951157 0.01918450884862417729626038 0.9155304011359213234300114
1.314005747997756268219405 0.03345598889356673349970706 0.9087289191032326129970897
1.324338682182914617158076 -0.01666666666666667337426411 0.914271480044942519427309
1.320084584433242946843734 -0.02038448892256173802794983 0.907135740022471326327036
1.320084584433242946843734 0.01294884441077159484279058 0.907135740022471326327036
1.308160499218989691883053 0.002186864172383205968952513 0.9103473633913727880440092
1.316320998437979561401789 -0.01482547072297086404590871 0.9179329328672019006063465
1.308160499218989913927658 -0.03183780561832492278506734 0.9103473633913727880440092
2.037562734209824810704959 -0.01388388355752512640095553 0.9138286573447456095919961
2.043781367104912316534637 0.007012183985633486243971291 0.9090014160042289015351002
2.043781367104912316534637 -0.03477995110068372863754149 0.9090014160042289015351002
2.040362234694724552497291 -0.03756273420982528254974397 0.9076100244496583258069222
2.040362234694724552497291 0.03756273420982526867195617 0.9076100244496583258069222
2.034143601799637046667613 -0.01666666666666667684371106 0.9124372657901747007969107
2.036943102284536788459945 -0.002608863943883698525288972 0.9062186328950874170118368
2.036943102284536788459945 0.03072446938944964345274968 0.9062186328950874170118368
2.090697917864756671946225 -0.001911867700799735336758545 0.9426097855655564128340984
2.081434280584043339246136 0.01664103676364702549816954 0.9352195711311132031440252
2.090697917864756671946225 0.03519394122809378633309763 0.9426097855655564128340984
2.074044066149600240578366 -0.03521957113111343073974524 0.9273345104534607141744118
2.074044066149599796489156 0.03521957113111343073974524 0.9273345104534607141744118
2.057390214434442921032087 0.004669020906921639638142985 0.9120592353413649044924227
2.064780428868886463789067 -0.01388388355752511772733815 0.9199442960190173934620361
2.057390214434443365121297 -0.03243678802197187682754276 0.9120592353413649044924227
1.234596244744417203875742 0.0008688086033793730430033198 0.9662725638589619858720425
1.230449728824742905430867 -0.009161840442727586450444299 0.9712878883820154074513198
1.218558058611948435867589 -0.01462149998286135961500509 0.9842021419367125156796305
1.210812904318828042704581 -0.03215697525290737296410626 0.992101070968356202328664
1.210812904318828042704581 0.002913975287184626845882196 0.992101070968356202328664
1.222416032248785588976148 -0.02669731571277360326899242 0.9632541918060579799742982
1.222075158675680395248264 -0.0424951737760609488114838 0.9544864541710351701908621
1.21052436203599111941287 -0.03420214193671265723306618 0.9761684453607550882026089
1.210524362035990897368265 0.0342021419367126849886418 0.9761684453607549771803065
1.230108855251637933747588 0.0266973157127736622495906 0.9625201507469923756232788
1.217928642756006096803389 0.0342021419367126849886418 0.9595017786940883697255344
1.234255371171312010147858 -0.01666666666666663867979459 0.9575048262239391760886065
1.229767981678532740019705 -0.007317764766770117057514966 0.9537524131119694548175403
1.229767981678532740019705 0.02601556856656321928267239 0.9537524131119694548175403
2.099964933534161914963079 -0.01665441985047134282327264 0.9500411898739358207421901
2.099982466767080779845855 0.01664384701702367047593256 0.9500297800491142030665515
2.099982466767080779845855 -0.04995268671796635612247783 0.9500297800491142030665515
2.099969651815571047848152 -0.04996493353416168320402235 0.950023656641016622792506
2.099969651815570603758943 0.04996493353416168320402235 0.950023656641016622792506
2.099952118582651738876166 -0.01666666666666666990481716 0.9500350664658380184235398
2.099956836864060871761239 0.01660597029780869898774043 0.9500175332329188204738557
2.099956836864060871761239 0.04993930363114204573626864 0.9500175332329188204738557
2.144118656633921204957005 0.01601683699749129052847252 0.9718981803635700078558557
2.138237313267842054642642 -0.01666666666666665602702935 0.9771270751326666115232911
2.144118656633921204957005 -0.01731649633584204234226789 0.9718981803635698968335532
2.129502322465985031385571 -0.0008033149370482994822140199 0.9803056374030331143742956
2.126648675030206270264443 0.004903979934509000715436855 0.9782553049043027915132598
2.127502269578423810258982 -0.03823731326784232664728336 0.9663920314432481450950263
2.118716999165397130155952 -0.02237396153822397010246803 0.9695264375105427934187219
2.11083560291175720280421 -0.03823731326784234052507117 0.9608417263198547608737954
2.118767278776566342912702 0.02237396153822397010246803 0.9695705937136145369237283
2.107981955475978441683083 0.03413664827038164623074223 0.9587913938211244380127596
2.127502269578423810258982 0.03823731326784234052507117 0.9663920314432483671396312
2.107931675864808784837123 0.0008155617532436311174076637 0.9587472376180526945077531
2.115863351729617924945615 -0.01665441985047134282327264 0.9674761050118125815799885
2.107931675864809228926333 -0.03412440145418631914919771 0.9587472376180526945077531
2.178928081156297213993867 -0.01561134255752029756370014 0.9945394237138178716861603
2.172654905007421533014167 0.006800838203448789955063436 0.9890788474276357433723206
2.178928081156297213993867 0.02921301896441787226965658 0.9945394237138178716861603
2.167194328721239404700327 -0.03907884742763574614787814 0.9834291855786421177043621
2.167194328721239404700327 0.03907884742763576002566595 0.9834291855786423397489671
2.155460576286181595406788 0.01685837115728471349851425 0.9723189474434665857671689
2.160921152572363723720628 -0.005553809603684373152887588 0.9779686092924599893905224
2.155460576286181595406788 -0.02796599036465345633484247 0.9723189474434665857671689
1.225735149665351908510047 0.0003549604766076965901323848 1.02461981081125497183848
1.225633795190131714036852 -0.0005576694270484905402440745 1.025076125763083156883226
1.217682477319203204757514 -0.01534496631480817066539579 1.033688293809940983436491
1.209832513923495556085186 -0.03236659345808253623877349 1.041844146904970402900403
1.209832513923495556085186 0.001676660828466194907981901 1.041844146904970402900403
1.217780763565903479062058 -0.01757929657032285958306872 1.017223094138855143953037
1.210292533336168929736232 -0.03389100276038183034987838 1.008712280567217955962178
1.20982944569497541387193 -0.0336882938099410389476418 1.025835262185712526417092
1.20982944569497541387193 0.0336882938099410389476418 1.025835262185712748461697
1.218145564960396942666421 0.01757929657032285611362177 1.016565312191445968892367
1.210191178860948513218432 0.0336882938099410389476418 1.009168595519046141006925
1.218246919435617359184221 -0.01666666666666666990481716 1.016108997239618005892225
1.210657334730662615385199 -0.03073049722247956500043031 1.008054498619809002946113
1.210657334730662615385199 0.002602836110853773074480522 1.008054498619809002946113
2.191990009896751523399416 0.005097579877329313016720569 1.013107569980577160606572
2.183980019793503757341568 -0.01666666666666666990481716 1.019538799835416398309462
2.191990009896751523399416 -0.02823575345600402158874331 1.013107569980577382651177
2.175578206358781407914194 -0.0001369602027775695192619854 1.025715166561558699953594
2.175186383027307712723086 0.0006466864601704866172965369 1.025460303432862207984044
2.17789709253468455329994 -0.01896669272108607307014694 1.016163340099627276913452
2.187057095665142725238184 -0.03398001979350381840383477 1.010882123271998001001748
2.174428193331571890212217 -0.002436986257196976750349915 1.024565153534349182251617
2.174428193331571890212217 0.002436986257196981087158605 1.024565153534349182251617
2.17789709253468455329994 0.01896669272108607653959389 1.016163340099627276913452
2.187057095665142725238184 0.03398001979350381840383477 1.010882123271997778957143
2.180974168406324409374974 -0.01151916805746680538824478 1.007506663536208657561133
2.176747079507475035597963 0.006800838203448786485616484 1.015013327072417315122266
2.180974168406324409374974 0.02512084446436437315530732 1.007506663536208657561133