# geometry NO_DATA 624
#  x  y  z
1.641773955329715040107885 0.03152323215021617108799745 0.9397492768205011337556698
1.633547910659430169033612 -0.01666666666666665602702935 0.9325355714048227939727553
1.641773955329715040107885 -0.001810101183117170673200769 0.9397492768205011337556698
1.625509801812957011435401 0.0005904489737201818865680591 0.9335479106594297693533235
1.625697737636768724911462 -0.01629079501904309723592235 0.9417739553297148624722013
1.625697737636768724911462 0.01747169296648344583022805 0.9417739553297149734945037
1.641327147918632878287326 -0.03354791065942993449899845 0.9403148086640256142487715
1.633289039072159720689115 -0.03354791065942993449899845 0.9413271479186324786070372
1.63328903907215949864451 0.03354791065942994837678626 0.9413271479186328116739446
1.641327147918632878287326 0.03354791065942994837678626 0.9403148086640259473156789
1.684980906071197326312472 0.01243469076659510681726051 0.9295697726454329457013159
1.692490453035598640951775 0.03074893017112607235263866 0.9366109043976627024363779
1.692490453035598640951775 -0.005879548637935862187564595 0.9366109043976627024363779
1.682447277756316639241163 -0.01926335311452830739709086 0.9307997050184524390203933
1.691255167944648807321073 -0.03498090607119763717491878 0.9374916072567487379529894
1.673290158054051346425695 -0.03428244704333067993662354 0.9389444854661110895222009
1.6732901580540515684703 0.03428244704333067993662354 0.9389444854661110895222009
1.682447277756316639241163 0.01926335311452830739709086 0.9307997050184522169757884
1.691255167944648807321073 0.03498090607119763717491878 0.9374916072567487379529894
1.676173015882865380277167 -0.0009491137099973389343668395 0.9228778704071365357464174
1.674874672658934304791956 0.001647572737864299533688817 0.9232270999210699935488833
1.665717552956669234021092 0.01464198815745288741185792 0.9313718803687287550729934
1.657858776478335016690835 0.03225776853411689570894083 0.9391674313024541698169401
1.657858776478335016690835 -0.002973792219211119584182379 0.9391674313024540587946376
1.734963634053381165145424 0.01264011509555896389800367 0.929689756827731139665616
1.742481817026690693595015 0.03093708248227360416149345 0.9368249647355347820010252
1.742481817026690693595015 -0.00565685229115566595714526 0.9368249647355346709787227
1.731280645769548431900375 -0.0199504103579778505062059 0.9296503450495002818243506
1.740440700588513411872782 -0.03496363405338130669885999 0.9367971240829113810377748
1.722132162076191130850589 -0.03498677630459654658290347 0.9366828407928219357714283
1.722132162076191130850589 0.03498677630459653964400957 0.9366828407928219357714283
1.731280645769548431900375 0.01995041035797783315897114 0.9296503450495002818243506
1.740440700588513411872782 0.03496363405338129975996608 0.9367971240829113810377748
1.725803579234416185173018 -0.001653442971263222819461314 0.9225429777943201514744942
1.724161707388760733650201 0.001630300720047953011437869 0.9225314066687124725518743
1.715013223695403432600415 0.01243469076659509467419618 0.929563902412034126498952
1.707506611847701805118049 0.03075480040452497482172944 0.9366079692809634593686496
1.707506611847701805118049 -0.00588541887133477333027276 0.9366079692809634593686496
1.784116540239714554516581 0.01545183800952941617634639 0.9319427120983831969169842
1.792058270119857299462751 0.03290171158257752803688589 0.9400602345563384698579057
1.792058270119857299462751 -0.001998035563518680939043559 0.9400602345563384698579057
1.782045810174866184993903 -0.01876028971527459593415799 0.9312626032684848675913258
1.791034351579313010915939 -0.03411654023971477656118623 0.939643730344362659856472
1.7733208733883423224853 -0.03464374947555981520963542 0.9379742642694548493409457
1.7733208733883423224853 0.03464374947555981520963542 0.9379742642694548493409457
1.782045810174866184993903 0.01876028971527457511747627 0.9312626032684847565690234
1.791034351579313010915939 0.03411654023971476268339842 0.939643730344362659856472
1.775127998835268172683755 -0.001310416142226497951406294 0.9235615850225051826072331
1.774081187310964091707888 0.0007832069063814163685510739 0.923297980404582774305311
1.765356250524440229199286 0.01264011509555896389800367 0.9300096414055528670772333
1.75767812526222000357734 0.03061719790445211614171583 0.9369849070244455901956826
1.75767812526222000357734 -0.00533696771333417880472938 0.9369849070244455901956826
1.806653606657945276836585 -0.04104738765785480303360799 0.9477009943157999050100671
1.806775311855272514449666 -0.01231206569292114978708685 0.94540198863160007647366
1.806653606657945054791981 0.01642325627201230917040498 0.9477009943157999050100671
1.804476306171072685913259 -0.04540198863160013753592636 0.9470935799872313154423864
1.804476306171072241824049 0.04540198863160033182495567 0.9470935799872313154423864
1.802299005684199650900723 0.04418715997446308330065534 0.9464861656586626148524033
1.80459801136839992352634 0.01545183800952962260844004 0.9447945743030313758836769
1.802299005684199872945328 -0.01328348395540403410752806 0.9464861656586626148524033
1.497239451242580177137143 0.04347031867927116099981077 0.9962308674366908700648082
1.494478902485160354274285 -0.01666666666666686419384646 0.9939746105822158117604204
1.497239451242580177137143 0.01013698534593782119017646 0.9962308674366908700648082
1.489155250196191104805621 0.00601936208872797320901249 0.9944789024851603542742851
1.486592146664641678199814 -0.02179287372976572781380078 0.997239451242580288159445
1.486592146664641678199814 0.03383159790722187199030202 0.9972394512425801771371425
1.49697044297899051201739 -0.04447890248516057215555364 0.9964661510760459695035252
1.491646790690021262548726 -0.04447890248516056521665973 0.9969704429789905120173898
1.491646790690021262548726 0.04447890248516037786652433 0.9969704429789902899727849
1.49697044297899006792818 0.04447890248516037786652433 0.9964661510760457474589202
1.535093075214204905165616 0.01175711605745051804849943 0.9791188161478530105341633
1.542546537607102141720361 0.03018352460498922168463665 0.9858772451170142447907097
1.542546537607102141720361 -0.006669292490088185587637781 0.9858772451170143558130121
1.532853101057271461016285 -0.01912924916733880695285386 0.981093359176399504306687
1.541537854700504972527142 -0.03509307521420536313261351 0.9873233375150249901963662
1.523639896783502312160863 -0.03403617395313344312635095 0.9898022715472244437151517
1.523639896783502090116258 0.03403617395313345006524486 0.9898022715472244437151517
1.532853101057271461016285 0.01912924916733882083064167 0.981093359176399504306687
1.541537854700504972527142 0.03509307521420538394929522 0.9873233375150248791740637
1.526408321570971615699364 -0.0007028406198001009314718646 0.9728888378092275246444842
1.525177030320635340743252 0.001759741880872041754416135 0.9734172884397633840336539
1.51596382604686619188783 0.0156580828607774530381036 0.9821262008105883234421185
1.507981913023433095943915 0.0330275901472442331985313 0.990306662550877292439111
1.507981913023433095943915 -0.001711424425689324086558019 0.990306662550877292439111
1.5930115631284138544288 -0.002910614268956682182398765 0.9638664630704412150663529
1.596505781564206971623321 0.02343428219279027405197446 0.9672502708335031229580636
1.596505781564206971623321 -0.02925551073070371127515799 0.9672502708335031229580636
1.584185636374953798366505 -0.02896228539501365800701294 0.9745074065798735585275381
1.593827664174920943906955 -0.04301156312841362960863734 0.9743607939120286776102375
1.571013188144080530150859 -0.03595072226660003117393316 0.9852250795061389121443085
1.571013188144080530150859 0.03595072226660005199061487 0.9852250795061389121443085
1.584185636374954242455715 0.02896228539501373780429283 0.9745074065798734475052356
1.593827664174920943906955 0.04301156312841369899757638 0.9743607939120284555656326
1.583369535328446930932955 -0.002617388933266633251062405 0.9640130757382863180282584
1.577221725964273568720841 0.009678229795080367861559445 0.9675434961691931068372696
1.564049277733399856415986 0.01175711605745052325266986 0.9782611690954584604540401
1.557024638866699728367848 0.03104117165738389319540325 0.9854484215908170252617992
1.557024638866699728367848 -0.007526939542482853628957429 0.9854484215908170252617992
1.618895406327197195039957 -0.04315188730406092215696745 0.9602668485070036119566339
1.610266848507003967228002 -0.04315188730406092215696745 0.9671448747058586370428657
1.610266848507003745183397 0.04315188730406098460701259 0.9671448747058584149982607
1.618895406327197195039957 0.04315188730406098460701259 0.9602668485070036119566339
1.620681171988356705782053 -0.0258947716636740883633383 0.9534240563479694507975637
1.615476670516132973176582 0.0005904489737202274230593035 0.9568481126959389460040484
1.620681171988356483737448 0.02707566961111448206045438 0.9534240563479695618198662
1.606848112695939301275416 -0.002910614268956691289697014 0.9637261388947938600679777
1.603424056347969806068932 0.02357460636843756313085763 0.9671801087456792789254223
1.603424056347970250158141 -0.02939583490635100729293505 0.9671801087456795009700272
1.838023682582170081900586 0.007926483223434655986383568 0.9742728923628806159129567
1.844011841291085085359214 0.02928349913893797673569708 0.9805813085990164879035547
1.844011841291085085359214 -0.01343053269206866129348299 0.9805813085990162658589497
1.829522475111291068827768 -0.03802368258216998198051328 0.968284733653965723476631
1.829522475111290846783163 0.03802368258216998891940719 0.968284733653965723476631
1.82353431640237606536914 -0.01666666666666666990481716 0.9619763174178299625083355
1.815033108931496830251717 -0.02428838311075136313643696 0.9559881587089150700720097
1.815033108931496830251717 0.009044950222581976673197346 0.9559881587089149590497072
1.88099788617793040046422 0.01081991921928042096889833 0.9798220330413501821809064
1.886113882503425376313544 -0.0005879265682904195053706808 0.9855259559351354781142618
1.890068106627185828827464 0.008496374815811055108971672 0.9941532525526138863725123
1.888906334425451749581271 -0.01899021107013602882584991 0.9970766262763071097197098
1.888906334425451305492061 0.03598296070175843741623112 0.9970766262763067766528025
1.87923752041558156378187 -0.01434065074397857832144698 0.9786495938472914435379835
1.870610223798103266545922 -0.03041939084235512069653851 0.9829067987431538977460832
1.876324813684212777786797 -0.04415325255261404874262965 0.9927065345546910446472566
1.870610223798103044501318 0.03041939084235482232410064 0.9829067987431537867237807
1.876324813684212333697587 0.04415325255261375037019178 0.9927065345546909336249541
1.879237520415581119692661 0.01434065074397828168373259 0.978649593847291332515681
1.874121524090086143843337 -0.002932804956407737088236454 0.9729456709535059255600231
1.872361158327737529205592 0.0005879265682901234097573751 0.9717732317594471869171002
1.863733861710259009925039 0.007926483223434652516936616 0.9760304366553096411252
1.856866930855129549371441 0.02752595484650906601520326 0.9814600807452308339762226
1.856866930855129549371441 -0.0116729883996397488382657 0.9814600807452308339762226
1.385630625715496666572335 0.01203129817594665064428572 1.028718356705809799933604
1.392815312857748510921851 0.03099525722477660533149546 1.035882651984864732952474
1.392815312857748510921851 -0.006932660872883298838753596 1.035882651984864732952474
1.385937853881300085845396 -0.006866484081469739764180815 1.04280433796276938984704
1.378762419996495625085231 0.01207552517740279225677558 1.035608675925538957329763
1.385937853881300085845396 0.03101753443627533815551978 1.04280433796276938984704
1.383514431777801867440303 -0.0196047573844678676979747 1.031217139395638193732907
1.392168164278954067825111 -0.03563062571549661938785647 1.03755318765143056403133
1.381228114290617314807719 -0.0195828075945104554400622 1.033503456882822968410096
1.387586276047137801015197 -0.03560867592553920712994397 1.042157189383975168794905
1.381228114290617314807719 0.01958280759451044156227439 1.033503456882822746365491
1.387586276047137801015197 0.03560867592553919325215617 1.042157189383975168794905
1.383514431777801867440303 0.01960475738446786075908079 1.031217139395638193732907
1.392168164278954067825111 0.03563062571549661244896257 1.037553187651430341986725
1.376976893214344244142922 -0.0006407983356379170223129926 1.022382308450017429635182
1.375507847855443666063024 0.002297292382163285216073456 1.023210555473280214400233
1.37322153036825911343044 0.00227534259220586515190532 1.025496872960464767032818
1.372404258239975138877753 -0.0006407983356379256959303725 1.026954943424386756944955
1.44184586049705654176023 -0.0005646713713333949020284352 1.016205137150610227081415
1.445922930248528359697957 0.02461452245905637603584637 1.02017906504680500034965
1.445922930248528359697957 -0.0257438652017231706103928 1.02017906504680500034965
1.433247251536899691259919 -0.02803469173132625696931441 1.024734724373176364409233
1.443008333820701150074228 -0.04184586049705642241125503 1.025880137637977806974732
1.420657654621704901742874 -0.03618883123426981651693524 1.035006637043011101795287
1.420657654621704901742874 0.03618883123426983039472304 1.035006637043011323839892
1.433247251536899691259919 0.02803469173132628125544308 1.024734724373176364409233
1.443008333820701150074228 0.04184586049705644322793674 1.025880137637977806974732
1.432084778213254860901316 -0.002855497900936482345152223 1.015059723885808562471311
1.426400765680925220024733 0.008512527163723124234984141 1.017888238517201893174047
1.413811168765730430507688 0.012031298175946666256797 1.028160151187036852604706
1.406905584382865281867225 0.03155346274354982327725594 1.03560354922547848133263
1.40690558438286505982262 -0.007490866391656499437279315 1.035603549225478259288025
1.473354226913238917973104 -0.04198112060370809417442217 1.012011212535540938262102
1.462011212535541115897786 -0.04198112060370809417442217 1.020062210183207529468064
1.462011212535541115897786 0.04198112060370810805220998 1.020062210183207529468064
1.473354226913238473883894 0.04198112060370810805220998 1.012011212535540938262102
1.476695468453540716069483 -0.01929509184831326024101017 1.004009439698145822461584
1.469361893773989402589564 0.006019362088728176171659179 1.008018879396291866967772
1.476695468453540716069483 0.03133381602576960911488158 1.004009439698145822461584
1.458018879396292044603456 -0.0005646713713333949020284352 1.016069877043958458173734
1.454009439698146000097267 0.02474978256570803392122571 1.020111434993479004873507
1.454009439698146000097267 -0.02587912530837482849577214 1.020111434993479004873507
1.896317988288056755052935 -0.009135848211452829437106971 1.007447420939550308816024
1.898158994144028222095244 0.02051547340993745485726585 1.009371824311185772415911
1.898158994144028222095244 -0.03878716983284289515632182 1.009371824311185772415911
1.89407384821860080847955 -0.04631798828805695766863693 1.005606415083578841773715
1.89407384821860036439034 0.0463179882880567286851381 1.005606415083578841773715
1.892232842362629341437241 -0.01666666666666689541886903 1.003682011711943378173828
1.889988702293172950774647 0.004814363103868076788904862 1.001841005855971689086914
1.889988702293172950774647 0.03814769643720140879228353 1.001841005855971467042309
1.935411039071597061322905 0.0137790554387867848068483 1.029811821981129416059275
1.942705519535798064367782 0.03252342784371718698022136 1.037740202569654712760894
1.942705519535798730501597 -0.004965316966143625172780407 1.037740202569654712760894
1.916869086110017939006411 -0.0313307754971934165899583 1.014791380371754314637656
1.931495620989482464580078 -0.03541103907159706687401979 1.027974109637278976592256
1.907496899907552556641122 -0.04591973642559635943038998 1.011262309135159798145764
1.907496899907553000730331 0.04591973642559611656910334 1.011262309135160242234974
1.916869086110018161051016 0.03133077549719319454535338 1.014791380371754314637656
1.931495620989482908669288 0.0354110390715970807518076 1.027974109637279198636861
1.920784504192132091660028 -0.01258640309226300227352091 1.01662909271560453206007
1.913452449776868791175843 0.002077705738263507188184898 1.011374744038605166807088
1.904080263574403630855159 -0.009135848211452841580171302 1.007845672802010872359801
1.902040131787201548974053 0.02011722154747684621067805 1.009570950242416165210102
1.902040131787201548974053 -0.03838891797038229691807487 1.009570950242415943165497
1.961099120190476385872103 -0.03449911791518223136421284 1.045598238105658328578329
1.962152202936750189365966 -0.009969308370531549529092175 1.041196476211317056836947
1.961099120190476385872103 0.01456050117411929190058828 1.045598238105658328578329
1.957750441042408695579979 -0.04119647621131750092615675 1.044154432491718687003868
1.957750441042408695579979 0.04119647621131735520938477 1.044154432491718464959263
1.954401761894340783243251 0.03830886498343745449890463 1.042710626877778601340196
1.958803523788682499073843 0.01377905543878661653867113 1.039752670597377193217881
1.954401761894341449377066 -0.01075075410586406876589649 1.042710626877778601340196
1.392381750653927330318993 0.007594876964064552551936238 1.065213126310137425889479
1.384763501307854527411223 -0.01666666666666665602702935 1.071179189135959219925098
1.392381750653927330318993 -0.02573845636926877511463374 1.065213126310137203844874
1.376319708088909354870566 -0.0002209197712231346475038329 1.076540627860132381954372
1.375494164216037207282284 0.001430167974520963475315583 1.075936003758483305858817
1.381236326207080811201422 -0.01912987537894989681364066 1.066865230285045651470455
1.390086179909295172052452 -0.03476350130785427899882123 1.062130771815365415378096
1.37508810373276801897191 -0.002684128483506374729383737 1.075309023503990601966507
1.37508810373276801897191 0.002684128483506380367235034 1.075309023503990601966507
1.381236326207080811201422 0.01912987537894990375253457 1.066865230285045651470455
1.390086179909295172052452 0.03476350130785428593771513 1.062130771815365415378096
1.386559004808521677887256 -0.005624182227026136744740814 1.057816812964452068968058
1.380004721850939475302766 0.01207552517740280093039296 1.065633625928904315571799
1.386559004808521677887256 0.02977523258183174814650584 1.057816812964452068968058
1.373856499376626238984045 0.0002209197712231400414096411 1.074077419147849044023246
1.374262559859895649339023 -0.001033040737762276443933995 1.074704399402341525870952
1.433905571319212812753108 -0.009677868278353426306770402 1.093583439597565876155727
1.4265776262632574589162 0.01082234425011197043176026 1.087166879195131885538217
1.433905571319212812753108 0.03132255677857737063973786 1.093583439597565654111122
1.420161065860823246254085 -0.03716687919513205623500696 1.079999127425671057167733
1.420161065860823246254085 0.03716687919513206317390086 1.079999127425671057167733
1.406416560402433901799668 0.009998254851342322849228061 1.066414815253776016135134
1.412833120804867892417178 -0.01050195767712306868513217 1.073582567023237066550223
1.406416560402434123844273 -0.03100217020558846542366283 1.066414815253776016135134
1.988254223515923735376987 0.007515713868038625608547498 1.073836966751428256827694
1.994127111757961756666191 0.02910327071729622294693485 1.080055268776743071512669
1.994127111757961756666191 -0.01407184298121897172983985 1.080055268776743071512669
1.980809124239362617458937 -0.03825422351592426550848103 1.06796407850939023553849
1.980809124239362839503542 0.03825422351592426550848103 1.067964078509390457583095
1.974936235997324818214338 -0.01666666666666666296592325 1.061745776484075642898119
1.967491136720763700296288 -0.02171508485460713067105587 1.055872888242037621608915
1.967491136720763922340893 0.01161824847872619873023758 1.055872888242037621608915
2.030003533376847357772021 0.008893568897885950619297546 1.078890035521038237575908
2.034171943361838152952714 -0.0005567489279043474643265954 1.083615194433933393014513
2.036457741720693270792708 0.005128345645615185743881881 1.092226902231218987893158
2.034575130094558037541219 -0.02043188991893742784133892 1.096113451115609205288592
2.034575130094558037541219 0.03068858121016779932910268 1.096113451115609205288592
2.028171244257755745366012 -0.01255814713606878858798144 1.077614495329850985427811
2.019559536460470372531972 -0.02866806487483111037795069 1.081650726727822586781258
2.023677623938417102777976 -0.04222690223121928349003795 1.091537974716295433808
2.019559536460470372531972 0.02866806487483110690850374 1.081650726727822586781258
2.023677623938417102777976 0.04222690223121928349003795 1.091537974716295433808
2.028171244257755745366012 0.01255814713606879032270491 1.077614495329850985427811
2.024002834272764950185319 -0.003107829310278492022240338 1.072889336416955829989206
2.02217054515367333777931 0.0005567489279043481148478989 1.071613796225768577841109
2.01355883735638796494527 0.007515713868038625608547498 1.075650027623740401239161
2.00677941867819376042803 0.02729020984498378710192412 1.080961799212899254740705
2.00677941867819420451724 -0.01225878210890653588482913 1.0809617992128990326961
1.436181847639383279968683 -0.01289411782922518512339849 1.115704426779337454789243
1.443090923819691617779881 0.006621063143491479063840188 1.110681625017749585282445
1.443090923819691617779881 -0.03240929880194180767727374 1.110681625017749585282445
1.440168762611414354779527 -0.03618184763938332021426802 1.10879535059902889493344
1.440168762611414354779527 0.03618184763938329939758631 1.10879535059902889493344
1.433259686431105794923724 -0.01666666666666669766039277 1.113818152360616764440238
1.437246601403137091779172 -0.002995808110504738150381421 1.106909076180308204584435
1.437246601403137091779172 0.03033752522282859645508246 1.106909076180308204584435
1.488000499530930165192899 -0.004915536057380053697185573 1.142916035588310563753112
1.479626196382999525624768 0.01424986845257402920394973 1.135832071176620772234855
1.488000499530930165192899 0.03341527296252810863563809 1.142916035588310563753112
1.472542231971309734106512 -0.03583207117662073892816466 1.12813564334036442460274
1.472542231971309734106512 0.03583207117662075280595246 1.12813564334036442460274
1.45708396441168952506473 0.006271286680728939411100242 1.113355251092418507496973
1.464167928823379094538382 -0.01289411782922514002058811 1.121051678928674855129088
1.45708396441168952506473 -0.03205952233917922639117037 1.113355251092418507496973
2.044712955964326006608189 -0.005803633062663117632429266 1.110718560837675505936772
2.047356477982162914486253 0.02224265623499635524673579 1.113506555621840199421513
2.047356477982162914486253 -0.03384992236032258877687084 1.113506555621840421466118
2.041587317471637241794724 -0.04471295596432613150827962 1.108075038819838820103314
2.041587317471637241794724 0.04471295596432614538606742 1.108075038819838598058709
2.038943795453800333916661 -0.01666666666666666296592325 1.105287044035673904573969
2.035818156961111569103196 -0.000158698390058671645608257 1.1026435220178367746513
2.035818156961111569103196 0.03317463494327466122513215 1.1026435220178367746513
2.084894026556477264477962 0.01519058439363426410428914 1.131034598973672533617219
2.092447013278238898692507 0.03341794428344525835772316 1.139410237782062074174405
2.092447013278238898692507 -0.003036775496176732317549218 1.13941023778206229621901
2.071346441594740017677623 -0.02891978526236416158212705 1.119785748371596056927046
2.08502598761434976282203 -0.03489402655647766415825117 1.132727253254689703254598
2.062232761649834600348186 -0.04402575870588649326053954 1.11766427845183669020912
2.062232761649834600348186 0.04402575870588650019943344 1.117664278451836468164515
2.071346441594740017677623 0.02891978526236416158212705 1.119785748371595834882442
2.08502598761435020691124 0.03489402655647766415825117 1.132727253254689481209994
2.071214480536867075244345 -0.01069242537255316385924608 1.118093094090578887289666
2.065087921239018520225272 0.001560693223144328902265987 1.113527228015874559474696
2.055974241294113102895835 -0.005803633062663117632429266 1.11140575809611519275677
2.052987120647056240585471 0.02155545897655671352954876 1.113850154251060153853814
2.052987120647056684674681 -0.03316272510188294359023686 1.113850154251060153853814
2.105213610294174308990023 -0.04292279153999878360536968 1.148136401834173980773812
2.105402202395826538605661 -0.01331665453831813901441894 1.146272803668347606276257
2.105213610294174308990023 0.01628948246336250210708485 1.148136401834173980773812
2.103538604230000608197315 -0.04627280366834730235270357 1.147398360697657659912352
2.103538604230000164108105 0.04627280366834730929159747 1.147398360697657437867747
2.101863598165826019226188 0.04479672139531490349106946 1.146660319561141339050891
2.103727196331652393723743 0.01519058439363426410428914 1.145534762531831285414796
2.101863598165826019226188 -0.01441555260804637701721465 1.146660319561141339050891
1.495513489763330428061749 -0.01525348369297062529892361 1.155193101723517301593347
1.497756744881665103008572 0.01359333940369368207146117 1.153656438092030889208672
1.497756744881665103008572 -0.04410030678963484246368765 1.153656438092030667164067
1.496548345774618926640187 -0.04551348976333097207103151 1.152949846605182404601919
1.496548345774618926640187 0.04551348976333088880430466 1.152949846605182626646524
1.494305090656284251693364 -0.016666666666666753171544 1.154486510236669261075804
1.495339946667572750271802 0.009763358215904911763249885 1.152243255118334586128981
1.495339946667572528227197 0.04309669154923823769509639 1.152243255118334586128981
1.54823193871471964655484 0.03971540425958204612033597 1.19148346554486295190145
1.546463877429438582566945 -0.01666666666666654500472688 1.193089640844510190831329
1.548231938714719202465631 0.006382070926248710647510354 1.191483465544862729856845
1.537408680753840295452051 -0.001443726684529326011532935 1.188852407438369951364621
1.530121545363523072325052 0.01313054409610516989892481 1.183008998732582028878824
1.542134558859328707924874 -0.046463877429438374400128 1.188760322274400538233863
1.522510075372454529940569 -0.03124093744730115779217883 1.174660393543832004326077
1.525467892192662100470102 -0.046463877429438374400128 1.176174483679510274214408
1.533079362183731086943794 0.031240937447301289631163 1.184523088868260520811759
1.518180756802344877343103 0.03477706001786277922871449 1.170331074973722573773216
1.542134558859329374058689 0.04646387742943850623911217 1.188760322274400982323073
1.507611469991068542384482 0.002856909658225581603169241 1.160468379649294279332139
1.51522293998213730681357 -0.01525348369297053509330286 1.16881698483804408184028
1.507611469991068320339878 -0.03336387704416665656026453 1.160468379649294279332139
1.558645235602273304564847 -0.03969230403297267784079594 1.198337539635246029590121
1.556816308348267563488321 -0.009683891429147386056830449 1.196675079270491881544558
1.558645235602273082520242 0.02032452117467779123538563 1.198337539635246251634726
1.555153847983513637487363 -0.04667507927049184546230975 1.194963303050317726672347
1.555153847983513415442758 0.04667507927049197036240002 1.194963303050317948716952
1.551662460364753970409879 0.03992660610063551024362383 1.191589066465389645799178
1.553324920729508118455442 0.009918193496810327747237324 1.193300842685563800671389
1.551662460364753970409879 -0.02009021910701496577145164 1.191589066465389423754573
2.137024802905428622068484 0.01002442556228380285410218 1.176320743209046337796053
2.143512401452714044580716 0.03038256180104597151125922 1.183178690776236052784043
2.143512401452714044580716 -0.01033371067647835539471401 1.183178690776236052784043
2.128520740850222026097072 -0.0370248029054288385619742 1.169833144661760693239216
2.128520740850222026097072 0.0370248029054288246841864 1.169833144661760915283821
2.12203314230293615949563 -0.01666666666666667684371106 1.162975197094571200295832
2.113529080247729119435007 -0.02629185163288930843217273 1.1564875985472857777836
2.113529080247729119435007 0.007041481700444022703844205 1.1564875985472857777836
2.177823552558400876932865 0.005014745967753220581841767 1.177191193409352409915414
2.180172835755015192660267 -0.0003161795745241589156160344 1.179856656180491292218449
2.179937750299405951892595 -0.0001539913366934731744298942 1.188348079301086546166744
2.177353381647182395397522 -0.02183540397111337350022353 1.194174039650543361901214
2.177353381647182395397522 0.02152742129772643522866993 1.194174039650543361901214
2.176845728209295671717882 -0.006970394665963131411445808 1.176529548634771771276064
2.168354305088700417769587 -0.02332088175810564933954083 1.181699851203175555269809
2.169097043982196382216898 -0.03834807930108657947343431 1.190852919098351891946663
2.168354305088700417769587 0.02332088175810562158396522 1.181699851203175555269809
2.169097043982196382216898 0.0383480793010865655956465 1.190852919098351891946663
2.176845728209296115807092 0.006970394665963092380167598 1.176529548634771549231459
2.17449644501268135599048 -0.001639469123685751263466703 1.173864085863632888973029
2.173518620663576594864708 0.000316179574524120751699563 1.173202441089052028289075
2.165027197542981340916413 0.01002442556228379591520827 1.178372743657456034327424
2.15751359877149084809389 0.02833056135263620212150215 1.184204691000440901049728
2.15751359877149040400468 -0.008281710228068592943850845 1.184204691000440901049728
1.593826962897741061908619 0.01434138823392359582409306 1.22051442533618303976084
1.587653925795481590910185 -0.01666666666666666990481716 1.225997657014702424405073
1.593826962897741061908619 -0.0189919450994097335772004 1.220514425336182817716235
1.578957465435083529214921 -0.0007262540541291412354851786 1.22968371948921273428823
1.576434042176944938518091 0.004320592462147984647025112 1.227886550285202993393341