# geometry NO_DATA 660
#  x  y  z
2.248654347275703013764314 0.04146478665639553862209965 1.292810439380692288935393
2.247308694551406027528628 -0.01666666666666666296592325 1.294386740603900687318628
2.248654347275703013764314 0.0081314533230622161597001 1.292810439380692288935393
2.240788951948341267694786 0.003627181460536783343118206 1.297308694551406071937549
2.235614862069573050007421 -0.02701484642420277915153548 1.298654347275703058173235
2.235614862069573050007421 0.03426920934527634410304842 1.29865434727570283612863
2.246150654365634213860403 -0.0473086945514062176543213 1.293228700418128873650403
2.239630911762569454026561 -0.0473086945514062245932152 1.296150654365634480313929
2.239630911762569454026561 0.0473086945514062245932152 1.296150654365634480313929
2.246150654365634213860403 0.0473086945514062245932152 1.293228700418128873650403
2.295481496458290138207303 0.02737574864603629226644799 1.28189425218774588621784
2.29096299291658045405029 -0.01666666666666667684371106 1.284169370781307772944047
2.295481496458290138207303 -0.005957584687297044073739372 1.28189425218774588621784
2.277074135056308623603627 -0.01111104905387683139394994 1.288185184110184788863762
2.267703780737746477313976 0.007629659583246867909922528 1.289925878845499918057271
2.289899388016525705324966 -0.04096299291658021118900379 1.283105765881253468307932
2.264925971931351700305868 -0.03540737530379036573924267 1.289781733704389532491064
2.273232721349859097870194 -0.04096299291658020425010989 1.28697743406902009866144
2.276010530156254318967513 0.03540737530379035880034877 1.287121579210130484227648
2.263862367031297395669753 0.04444438238721015732579644 1.288718128804335005810344
2.289899388016526149414176 0.04096299291658021118900379 1.283105765881253468307932
2.252777808806394777008109 0.0386004744921994713546809 1.291378283298594276118365
2.255555617612789554016217 0.01082275877165598046425465 1.291522428439704661684573
2.252777808806394777008109 -0.01695495694888750348727768 1.291378283298594276118365
2.342059585806452126632848 0.0170142934093695588626538 1.274954707602917292064149
2.334119171612904608537065 -0.0166666666666666525575824 1.275566732511137058025952
2.342059585806452126632848 -0.01631903992396377747753355 1.274954707602917292064149
2.325297160587085798510998 -0.0009773553849706595811341892 1.276274515972056544654833
2.324415563754814950669925 0.0007858382795711560137724705 1.276370274524756265321912
2.334323525546976973998881 -0.03411917161290446698362899 1.275771086445209201443163
2.31657090811396670915201 -0.01842986033120847313981905 1.277421308030332269822793
2.317656858880309922454899 -0.03411917161290446698362899 1.277529903411704692572926
2.325501514521158163972814 0.01842986033120849742594771 1.276478869906128688072044
2.316775262048039074613826 0.03431068871830401934008847 1.277625661964404413240004
2.334323525546976529909671 0.0341191716129044808614168 1.275771086445209201443163
2.307844655640848063882231 0.02072344444776010735642657 1.278568100088607994990753
2.315689311281695861310936 0.003079422396122768329496111 1.277517066583031990489872
2.307844655640847619793021 -0.01456459965551458630994563 1.278568100088607994990753
2.385692253862495171290448 -0.0009012031352977671822337968 1.272190477903188510211407
2.392846126931247319191698 0.01812438406053136497053657 1.272919336600121020808274
2.392846126931247319191698 -0.01992679033112691386331328 1.272919336600121020808274
2.374698737717330310204034 -0.02132649958701002962380144 1.272339817188168575867735
2.384182527246254235109291 -0.03569225386249580411757165 1.273039671816110329771732
2.365185944119416294739722 -0.03563424572451422828178735 1.27330017168431575136367
2.365185944119416294739722 0.03563424572451423522068126 1.27330017168431575136367
2.374698737717331198382453 0.02132649958701005390993011 1.27233981718816879791234
2.384182527246254679198501 0.03569225386249581105646556 1.273039671816110329771732
2.376208464333571246385191 -0.002300912391180882834301746 1.271490623275246978352016
2.373878547873399913470394 0.002358920529162490328789481 1.271519627344237735044885
2.364365754275485009827662 -0.0004382115368682468897754134 1.27247998184038491054082
2.357182877137742327278147 0.01852936752097932016081216 1.273411332267541329343885
2.357182877137742771367357 -0.01940579059471581740980994 1.273411332267541329343885
2.434236047525264456936611 0.0008932288821452820945859252 1.274543900249141659131169
2.442118023762632095241543 0.01846260974074303770620098 1.275441871786179959258334
2.442118023762632095241543 -0.0166761519764524746012313 1.275441871786179959258334
2.424949599612583384100617 -0.01856868184790344544765617 1.27404688542065258616276
2.433782583440569968757927 -0.03423604752526442085436287 1.274993150356378279752789
2.416164909183284414950776 -0.03433263432263902736885086 1.27404764094896938431134
2.416164909183284414950776 0.03433263432263902736885086 1.27404764094896938431134
2.424949599612583828189827 0.01856868184790345238655007 1.27404688542065258616276
2.433782583440569968757927 0.03423604752526442085436287 1.274993150356377835663579
2.425403063697278316368511 -0.0009993009893056892939400271 1.273597635313416187585744
2.424452056106660258194552 0.0009027141919310932962131067 1.273549341914729016167485
2.415667365677360844955501 -0.0009012031352977775905746527 1.27355009744304559227146
2.40783368283867993397962 0.01676476452067458128292188 1.273599146370049339793695
2.40783368283867993397962 -0.01856717079127014058403944 1.273599146370049339793695
2.49395157432692693433296 0.02578337825751313497346651 1.281831803930585822470789
2.487903148653853868665919 -0.01666666666666666990481716 1.2818432634556835569839
2.49395157432692693433296 -0.007549955075820208305614756 1.281831803930585822470789
2.477695104644540791127838 -0.003749421351960159978777831 1.281444525996501049291965
2.473535486308300335167587 0.004569815320520964445349943 1.281034329012220585042314
2.487145696739031297539668 -0.03790314865385430165289904 1.281085811540860763813043
2.467076863650946805250896 -0.02498590333914778652268929 1.279606232777313223891724
2.470479030072364245995686 -0.03790314865385429471400514 1.279258977846770672925913
2.476937652729717775912377 0.02498590333914779693103014 1.280687074081678034076504
2.466319411736123790035435 0.03708275468529349805368867 1.278848780862490430720868
2.487145696739031297539668 0.03790314865385430165289904 1.281085811540860763813043
2.456458622657353263463165 0.02130931690077211143607983 1.277767939558125398491484
2.462917245314706349290645 0.0008932288821452809019635355 1.279196035793032759642074
2.456458622657353263463165 -0.0195228591364815448616632 1.277767939558125398491484
2.54723673888026835854248 0.03772204487055268173900657 1.290485305990284103927479
2.544473477760536894720644 -0.01666666666666666296592325 1.291097761315545211502354
2.54723673888026835854248 0.004388711537219348868266167 1.290485305990284103927479
2.531732286224785077877186 -0.008815716404837638589531146 1.29054800262962299228775
2.521754355808764280766354 0.01114014442720405624609459 1.289385788618439665498272
2.543213034234869773797527 -0.04447347776053739432100542 1.289837317789877646490027
2.51782888067784949015504 -0.03662252749870836820988984 1.287251378551183655929435
2.526546367568203166342755 -0.04447347776053739432100542 1.287153149036699417706586
2.530471842699117512864859 0.03662252749870836820988984 1.289287559103955427275423
2.516568437152181925142713 0.04214904973817096972554808 1.285990935025516090917108
2.543213034234869773797527 0.04447347776053739432100542 1.289837317789877646490027
2.503925475130914346522104 0.0300292793418298134544564 1.28395475447274431957112
2.507850950261828693044208 0.004546896270325503225384622 1.286089164540000329139957
2.503925475130914346522104 -0.02093548680117881047313411 1.28395475447274431957112
2.58304122017671966560215 -0.01524359795770610301324233 1.298284818134425755431494
2.569093382886721066427071 0.01465937164447850965531828 1.296569636268851466454066
2.58304122017671966560215 0.04456234124666311885443193 1.298284818134425755431494
2.567378201021146555405039 -0.0465696362688512721650369 1.294909101689433406079388
2.567378201021146555405039 0.04656963626885127910393081 1.294909101689433406079388
2.551715181865573889297139 0.03981820337886657346082586 1.291533385244441056727283
2.553430363731148400319171 0.009915233776681960792265258 1.293193919823859117101961
2.551715181865573889297139 -0.01998773582550264493740144 1.291533385244441056727283
2.192733915367483632508083 0.01130534157824379312695662 1.318571426210759955921503
2.185467830734967087380483 -0.01666666666666666296592325 1.323386586156605426722876
2.192733915367483632508083 -0.02202799175508954321323074 1.318571426210759955921503
2.170176234938754333825273 -0.01391652492575817454123488 1.335467830734966998562641
2.162150723775058569486873 -0.03271768899405891328768803 1.342733915367483321645636
2.162150723775058569486873 0.004884639142542565939941746 1.342733915367483543690241
2.184795453421116917525069 -0.03546783073496740518182335 1.322714208842755256867463
2.169503857624904163969859 -0.03546783073496740518182335 1.334795453421116828707227
2.169503857624904163969859 0.03546783073496741212071726 1.334795453421117272796437
2.184795453421116917525069 0.03546783073496741212071726 1.322714208842755256867463
2.215589101834711804883682 -0.04626108657314516314773556 1.305442177771110046080594
2.205442177771109957262752 -0.04626108657314516314773556 1.310027599859414859650997
2.205442177771109957262752 0.04626108657314516314773556 1.310027599859414859650997
2.215589101834711360794472 0.04626108657314516314773556 1.305442177771110046080594
2.22216330484063107064685 -0.02596723844594171770605584 1.301869456713427464222832
2.213885837490456864884436 0.003627181460536777705266909 1.303738913426854661992138
2.22216330484063107064685 0.03322160136701528265756878 1.301869456713427464222832
2.203738913426854573174296 -0.007495822490056960364646077 1.308324335515159697607146
2.20186945671342737540499 0.02209859741642154068452797 1.311040300890037091363638
2.20186945671342737540499 -0.03709024239653545274020274 1.311040300890037091363638
2.599786456419051816624233 -0.01620906194433148483913243 1.30044234594211571831579
2.599893228209525730676432 0.01691072780805361747136217 1.300564376512809428021455
2.599893228209525730676432 -0.04932885169671658714962703 1.300564376512809428021455
2.598889580698431789329561 -0.04978645641905177221531176 1.300335574151641804263591
2.598889580698431789329561 0.04978645641905177221531176 1.300335574151641804263591
2.598782808907957875277361 -0.0166666666666666664353702 1.30021354358094831660253
2.59788593318733784798269 0.01444582806353026695200814 1.300106771790474180505726
2.59788593318733784798269 0.04777916139686361196581288 1.300106771790474180505726
2.645253266589634222327732 -0.006981325443302635949671675 1.309589404022047931519523
2.64762663329481728879955 0.02160527447966488837072241 1.312058707928546841259276
2.64762663329481728879955 -0.03556792536627016720895966 1.312058707928546841259276
2.614738352635594065276337 -0.04496199739651970950227167 1.302818419379293324311675
2.631259384705703752160844 -0.04525326658963419595993471 1.307515455394417935863771
2.600445052674110080204173 -0.04970873080688552325678842 1.300673855035277881597722
2.600445052674110080204173 0.04970873080688552325678842 1.300673855035277881597722
2.614738352635593621187127 0.04496199739651971644116557 1.302818419379293324311675
2.631259384705703752160844 0.04525326658963419595993471 1.307515455394417935863771
2.628732234519524979532434 -0.01637539747355218691660106 1.304892368006922875878217
2.614584569154597915030536 0.01191993325630085788502388 1.302664635898297174065874
2.600291269193114374047582 -0.01620906194433148483913243 1.300520071554282175441131
2.600145634596557009388107 0.01683300219588736851283883 1.300603239318892434539521
2.600145634596557009388107 -0.04925112608455034512999759 1.300603239318892434539521
2.685784791495008594353067 0.004231000101324740650388101 1.324664041888986787398608
2.69289239574750460803898 0.02334912492966669320115791 1.328005271020486821598183
2.69289239574750460803898 -0.01488712472701721363510519 1.328005271020487043642788
2.67293016654782977781224 -0.02363767483817172387894345 1.320478708386154664822243
2.683523274886078446854754 -0.03578479149500862072086349 1.324853983441732108161659
2.663371104133659628132591 -0.03785288334316309899474362 1.31821377474534107143711
2.663371104133659628132591 0.03785288334316309899474362 1.31821377474534107143711
2.67293016654782977781224 0.02363767483817172387894345 1.320478708386154664822243
2.683523274886078446854754 0.03578479149500862072086349 1.324853983441731886117054
2.675191683156760369399763 -0.004519550009829765256641476 1.320288766833409788148401
2.671706179071007714043162 0.002451458161675288283803953 1.319254720909332601053165
2.662147116656837120274304 -0.006981325443302635949671675 1.316989787268518785623428
2.656073558328418293683626 0.01420489123319379834442522 1.315758899551782379333531
2.656073558328418293683626 -0.02816754211979907718266247 1.315758899551782379333531
2.735389575723605748436285 -0.01146616018757237731584553 1.34685573591117835334785
2.722411183995036232374787 0.01557864496811718971192029 1.343711471822356395833253
2.735389575723605748436285 0.04262345012380675673968611 1.346855735911178131303245
2.719266919906214496904795 -0.04371147182235622652424212 1.340637902628507349689357
2.719266919906213608726375 0.04371147182235622652424212 1.340637902628507127644752
2.703144264088822357194886 0.03127580525701430247398349 1.334420069345835901941655
2.706288528177644536754087 0.004231000101324740650388101 1.337493638539685392174761
2.703144264088822357194886 -0.02281380505436482464265424 1.334420069345835901941655
2.143264795872547701094391 0.006223891270665771538461719 1.362959095398118103403817
2.136529591745095491006623 -0.01666666666666673929375619 1.371376741507880137049824
2.143264795872547701094391 -0.02710944206266756306700216 1.362959095398117881359212
2.125944639235808786281723 -0.00450323835190589993882071 1.386529591745095046917413
2.12209489085397517982301 -0.02436616343033437548371012 1.393264795872547701094391
2.12209489085397517982301 0.01535968672652264672973121 1.393264795872547257005181
2.135824417050617984870087 -0.0365295917450952078997517 1.370671566813403297047103
2.125239464541331724234396 -0.0365295917450952148386456 1.385824417050617984870087
2.125239464541332168323606 0.03652959174509513851081266 1.385824417050617762825482
2.135824417050617984870087 0.03652959174509513851081266 1.370671566813403297047103
2.152866637749963896197869 -0.04900562208032697986137549 1.351491566879509109710966
2.151491566879509598209097 -0.04900562208032697986137549 1.353005383308961251387359
2.151491566879509598209097 0.04900562208032700761695111 1.353005383308961473431964
2.152866637749964340287079 0.04900562208032700761695111 1.351491566879509775844781
2.153247330700744921472278 -0.04625548033941849490613407 1.350497188959836281085813
2.152369448790127037796083 -0.01391652492575816066344707 1.350994377919672917442995
2.153247330700745365561488 0.01842243048790216317089907 1.350497188959836503130418
2.150994377919673183896521 -0.01363903380776268492446945 1.352508194349124837074783
2.150497188959836769583944 0.01869992160589763890987669 1.353524821818740564438599
2.150497188959836769583944 -0.04597798922142302263660341 1.353524821818740342393994
2.74979276055163968095485 -0.01620232074073574626837946 1.350439412411325479368429
2.749896380275819840477425 0.0169237731442378781798741 1.350567965650111057485105
2.749896380275819840477425 -0.04932841462570936724718607 1.350567965650111057485105
2.749352369426544928643352 -0.04979276055164029435307071 1.350335792687145541890459
2.749352369426544928643352 0.04979276055164029435307071 1.350335792687145541890459
2.749248749702365657299197 -0.01666666666666666990481716 1.350207239448359963773783
2.74880835857727046089849 0.01537140551975747261581606 1.350103619724180248340417
2.74880835857727046089849 0.0487047388530908176296208 1.350103619724180248340417
2.792592506890847037226422 -0.001614316574967731817216721 1.364933668155002610689053
2.796296253445423651839974 0.02431152364921254638296944 1.368756096646275510764212
2.796296253445423651839974 -0.02754015679914802172678634 1.368756096646275510764212
2.763518819121539848993052 -0.0422288315494269844707631 1.354259645564026559583226
2.780003648117496339864374 -0.04259250689084694008190723 1.361603982939165735643883
2.750555899009449412062622 -0.04963632465858004716441343 1.350788071972415682608926
2.750555899009449412062622 0.04963632465858004022551953 1.350788071972415460564321
2.763518819121539848993052 0.04222883154942699834855091 1.354259645564026337538621
2.780003648117496783953584 0.04259250689084696089858895 1.361603982939165735643883
2.77610767789489010226589 -0.01630299132524669694643826 1.357589330779863212583791
2.76332659545350978191891 0.009259173557513615884784208 1.354067421895996492509084
2.750363675341419344988481 -0.01620232074073574973782641 1.350595848304385615534784
2.75018183767070967249424 0.01676733725117762405232291 1.350646183596641236590585
2.75018183767070967249424 -0.04917197873264912005852878 1.350646183596641236590585
2.848981764576878905614876 0.04603327889555875601645951 1.397051514318678799853046
2.84796352915375816650112 -0.01666666666666666990481716 1.396998404024658579913876
2.848981764576878905614876 0.01269994556222541967627215 1.397051514318678799853046
2.836265461912462093607701 -0.006729467815925697926626725 1.392994929728388342482504
2.825585630094286759828037 0.01463019582042573984992373 1.389044565726138324990302
2.847269718541645566745046 -0.04796352915375907965955804 1.396304593412545980157802
2.820617030668916669355895 -0.03802633030301810768136761 1.384872673530691544740989
2.830603051874979403379484 -0.04796352915375907965955804 1.388129226920828962477117
2.835571651300349493851627 0.03802633030301810768136761 1.39230111911627574272643
2.819923220056804069599821 0.04006280114925902385847323 1.38417886291857916702952
2.847269718541646454923466 0.04796352915375907965955804 1.396304593412545980157802
2.804968599425370801014878 0.02178181790762461281230067 1.376750417332995191088685
2.809937198850740891487021 -0.001614316574967748080249308 1.380922309528441527248788
2.804968599425370801014878 -0.02501045105756010203390538 1.376750417332994746999475
2.853464880707824224970182 -0.04612241081204335180210307 1.399587291519867715550163
2.852351503074109562163585 -0.01361449443897340579046062 1.399174583039736186051982
2.853464880707824224970182 0.01889342193409653675173487 1.399587291519867715550163
2.8519387945939778106208 -0.04917458303973661071228918 1.398622166390767862509392
2.8519387945939778106208 0.04917458303973661071228918 1.398622166390767640464787
2.850412708480130952182208 0.04724433278153628706919065 1.397657041261667565379412
2.850825416960262703724993 0.01473641640846634279227167 1.398209457910636110966607
2.850412708480130952182208 -0.01777149996460359801520035 1.397657041261667787424017
2.107210549921358477831745 -0.0411634313802515042213237 1.448373981301610102789823
2.106044303008263618437468 -0.01108213544369733745409423 1.446747962603220694077777
2.107210549921358921920955 0.01899916049285682237424133 1.448373981301610102789823
2.114040588493540262504666 -0.04424073172763298700260748 1.407958874336159960094506
2.109584893034549324397631 -0.04098869433085380875603221 1.422999522304436936792627
2.109497524509850396867705 -0.04674796260322081759008839 1.436786554834920126566544
2.109584893034549324397631 0.04098869433085384345050173 1.422999522304436492703417
2.109497524509850396867705 0.0467479626032208384067701 1.436786554834919904521939
2.114040588493540262504666 0.04424073172763300088039529 1.407958874336159293960691
2.115043062450944422181465 -0.03207730341287214070877809 1.402879634136183550907617
2.111840982429747270998632 -0.004503238351905806263753007 1.405759268272366746543867
2.115043062450944422181465 0.02307082670906051083403732 1.402879634136183328863012
2.107385286970756332891597 0.0134146292698875194138175 1.420799916240643945286592
2.106131671532962545967393 -0.01090739839429964372352622 1.432960930072737726348464
2.892106201171227741753 0.0006781299811810710415765913 1.416566197152695494310137
2.896053100585613382378369 0.02611766448574241034075172 1.4212916960622337114728
2.896053100585613382378369 -0.02476140452338027389544983 1.4212916960622337114728
2.880912520032794077451399 -0.04210620117122801375764141 1.412619297738309853684768
2.880912520032793189272979 0.0421062011712279998798536 1.412619297738309853684768
2.87696562061840754864761 -0.01666666666666666296592325 1.407893798828771636522106
2.865771939479973440256799 -0.02150829326774539654310026 1.403946899414385551807527
2.865771939479973440256799 0.0118250400655879397970871 1.403946899414385551807527
2.926322262307787358537325 -0.02010215180658849257189225 1.446424414114376277851193
2.918524509982328929424966 0.006080009755497316550898468 1.442848828228752378066702
2.926322262307787358537325 0.03226217131758311179590137 1.446424414114376277851193
2.91494892409670569577429 -0.04284882822875246688454354 1.438430145771633306139847
2.91494892409670569577429 0.04284882822875247382343744 1.438430145771633306139847
2.903575585885623588922044 0.02686029154326687734544166 1.430435877428890556473107
2.907151171771247266661931 0.0006781299811810803657152746 1.434854559886009628399961
2.903575585885623588922044 -0.02550403158090473049179892 1.430435877428890556473107
2.11693827889311858569954 -0.02980218894230544229850821 1.496740467835423915587967
2.113358437693423574899043 -0.002987919938124383202604495 1.493480935670847609131329
2.11693827889311858569954 0.02382634906605667415857575 1.496740467835423915587967
2.10821152775812059587679 -0.04653697282338685459190941 1.455419262146635528409888
2.108678794311211746048684 -0.04001790849423458168443446 1.468826396648726273497232
2.11378665408717658635851 -0.04348093567084772292918871 1.483761549727086404004694
2.108678794311211746048684 0.04001790849423458862332836 1.468826396648726273497232
2.11378665408717658635851 0.04348093567084772292918871 1.483761549727086404004694
2.10821152775812059587679 0.04653697282338686846969722 1.455419262146635528409888
2.107316044811275546067009 -0.04095244160041753428425082 1.451731513588306210493784
2.106255292788097754907994 -0.01108213544369734612771161 1.453463027176612687441093
2.107316044811275546067009 0.0187881707130228489677215 1.451731513588306210493784
2.106722559341189349169099 0.0101476023375143900584483 1.466870161678703654573042
2.108250577917458734589218 -0.01320363949005352345589248 1.478545782592487478623866
2.946865378096408250030436 -0.008582270491923362637498585 1.457176819990962712836335
2.94843268904820376974385 0.02161644093781877468130048 1.459651707126538910941349
2.94843268904820421383306 -0.03878098192166549301740375 1.459651707126538910941349
2.943139360592619269141323 -0.04686537809640881069306317 1.455609509039167193122921
2.943139360592619269141323 0.04686537809640878987638146 1.455609509039167193122921
2.941572049640823749427909 -0.01666666666666667684371106 1.453134621903591217062512
2.937846032137034768538797 0.002945387851906104085403237 1.451567310951795697349098
2.937846032137034768538797 0.0362787211852394347877393 1.451567310951795697349098
2.98644416495899678309911 -0.007105807221228138681468067 1.49354997218022522709191
2.977897124209160750751835 0.01332747047255544367572178 1.487099944360450232139215
2.98644416495899678309911 0.03376074816633902603291162 1.49354997218022522709191
2.97144709638938575579914 -0.03709994436045024879256005 1.480925503600930115410961
2.97144709638938575579914 0.03709994436045024879256005 1.480925503600930115410961
2.956450027819774284409959 0.01185100720186022839330864 1.468301035021635003730012
2.962900055639549723451864 -0.008582270491923353963881205 1.474475475781155342502871
2.956450027819774284409959 -0.02901554818570693805579452 1.468301035021635003730012
2.138702429683552175276873 0.01330499860119919997014648 1.526283402950380008178399
2.14435121484177582118491 0.03534076161808541449715904 1.535620450426089522721895
2.14435121484177582118491 -0.008730764415686988536013935 1.535620450426089522721895
2.134523921539380530987273 -0.0387024296835528705540419 1.520634617792156584314966
2.134523921539380530987273 0.03870242968355285667625409 1.520634617792156584314966
2.128875136381156885079236 -0.01666666666666668378260496 1.511297570316447291816075
2.124696628236985240789636 -0.01428549025457152843454622 1.505648785158223645908038
2.124696628236985240789636 0.01904784307876180443619418 1.505648785158223645908038
2.153208850737860835522497 -0.04627421440841570504654001 1.549483065146276761225863
2.152379827649514965060007 -0.01397475078252873384454524 1.54896613029255370008741
2.153208850737860835522497 0.01832471284335823735744953 1.549483065146276761225863
2.151862892795791903921554 -0.04896613029255363069847107 1.547802231113542870133415
2.151862892795792348010764 0.04896613029255364457625888 1.547802231113543314222625
2.150516934853722972320611 0.0456044622270861815804821 1.546121397080809645174782
2.151033869707446033459064 0.01330499860119921384793429 1.547285296259819808994962
2.150516934853722972320611 -0.01899446502468775388461353 1.546121397080809423130177
2.998814762534607325505931 -0.01346272137453152772934573 1.50278721011145965924527
2.999407381267303662752965 0.01868537449340956779764156 1.503796564024831194927856
2.999407381267303662752965 -0.04561081724247262325633301 1.503796564024831194927856
2.997737783170248082598164 -0.04881476253460775849291053 1.50219459137876354404284
2.997737783170248082598164 0.04881476253460775849291053 1.50219459137876354404284
2.997145164437551745351129 -0.01666666666666666990481716 1.501185237465392008360254
2.996068185073192502443362 0.01214223300716320459724518 1.500592618732695893157825
2.996068185073192502443362 0.0454755663404965287943682 1.500592618732695893157825
3.034194020036196537404294 -0.008528529853981182615174639 1.542722549890178651565975
3.028013185182829580810449 0.01024990325970947732669991 1.535445099780357480767634
3.034194020036196537404294 0.02902833637340011818661623 1.542722549890179095655185
3.020735735073008854101317 -0.03544509978035730729528652 1.527657855869579472951614
3.020735735073008854101317 0.03544509978035732117307433 1.527657855869579694996219
3.007277450109820726709131 0.005315711739159137416699252 1.512593161848980516381857
3.014554900219641897507472 -0.01346272137453150170849359 1.520380405759758080108668
3.007277450109820726709131 -0.03224115448822215818092118 1.512593161848980516381857
2.193038406670855700042466 0.03338256338135449363679896 1.59034415671049811358273
2.186076813341712110627668 -0.01666666666666662133255983 1.584729688361533384011182
2.193038406670855700042466 4.923004802115844857641341e-05 1.59034415671049811358273
2.177600240275935128408946 -0.0002864794648868634538430022 1.577886719740822840662986
2.176085260539302179694232 0.002743480008379156707271074 1.576658219469076360752524
2.168011543795150597446764 -0.02215578831059429945615769 1.566665585853082021117189
2.177717697946258468277847 -0.03607681334171242149011505 1.575024615024010365971208
2.174855679453971291081871 -0.005775601108814547648973026 1.575142158918859003335911
2.174855679453971291081871 0.005775601108814626578891183 1.575142158918859003335911
2.168011543795150597446764 0.02215578831059435843675587 1.566665585853082021117189
2.177717697946258024188637 0.03607681334171247006237238 1.575024615024010588015813
2.159652428399696511007733 -0.03338705908474394468132829 1.556960512515559003077215
2.165266982973186760119688 -0.01397475078252872517092786 1.563921025031118183790113
2.159652428399696511007733 0.005437557519686495206834298 1.556960512515559003077215
2.172111118632007453754795 0.0002864794648869427090218109 1.572397598096895166008835
2.173340699717338342367157 -0.00274564163554852748785895 1.573913658647112967514659
2.203572843123867919246095 -0.04590885787562044850762533 1.599481700999488609227228
2.202563870062700601692995 -0.01361212254330948154268377 1.598963401998977129636614
2.203572843123867919246095 0.01868461278900147154446998 1.599481700999488609227228
2.202045571062189566191591 -0.04896340199897762646141786 1.598134576019309527339374
2.202045571062189122102382 0.04896340199897764033920566 1.598134576019309527339374
2.200518299000510769047878 0.04626915203861967085252616 1.596787451039130445451519
2.201036598001022248638492 0.01397241670630870909175503 1.59761627701879804774876
2.200518299000510769047878 -0.01832431862600226307735696 1.596787451039130445451519
3.047523112594237915118356 -0.007319856795456850147296723 1.557150292341366260018276
3.048761556297117980562916 0.02353658913211521125363745 1.560585253574090502937111
3.048761556297118424652126 -0.03817630272302891675240133 1.560585253574090502937111
3.04555317459363994458954 -0.04752311259423873390783655 1.555911848638485750484506
3.04555317459363994458954 0.04752311259423872696894264 1.555911848638485972529111
3.04431473089075943505577 -0.01666666666666666296592325 1.552476887405761285521066
3.042344792890161020437745 0.007773015853948191111744137 1.551238443702880775987296
3.042344792890161020437745 0.04110634918728152398248454 1.551238443702881220076506
3.068385519885666212758224 -0.02796152843666148760104484 1.596347048322328321390273
3.064672187459340779724926 -0.001934098458671746180795314 1.592694096644656553962704
3.068385519885666212758224 0.02409333151931801822454027 1.596347048322328321390273
3.061019235781668790252752 -0.04269409664465643322595056 1.584353786591266244343501
3.061019235781668790252752 0.04269409664465640547037495 1.584353786591266244343501