# geometry NO_DATA 684
#  x  y  z
2.249776411335009385084049 0.04949146529894540846861162 1.349715053963935318392942
2.249552822670019214257309 -0.01666666666666666296592325 1.349522143984482003276071
2.249776411335009385084049 0.01615813196561207906731816 1.349715053963935318392942
2.249462822461656408279396 0.01648666624994081508770449 1.349552822670019525119756
2.249596410918283773128223 -0.01639948975341201653499468 1.349776411335009473901891
2.249596410918283773128223 0.04937282225329364671040366 1.349776411335009473901891
2.249756534581679012774202 -0.04955282267001949458862242 1.349725855896142023837569
2.249666534373316206796289 -0.04955282267001949458862242 1.349756534581679101592044
2.249666534373316206796289 0.04955282267001949458862242 1.349756534581678879547439
2.249756534581679012774202 0.04955282267001949458862242 1.349725855896142023837569
2.283896032664618047647309 0.01554126800409816495929238 1.332207934670764926110564
2.291948016332309379095022 0.03277063400204907606116933 1.340259918338456035513673
2.291948016332309379095022 -0.001688097993852769778191925 1.340259918338456035513673
2.283010765677589759548027 -0.01763197754554146970407125 1.332448066346305193263788
2.291545404784718797941423 -0.03389603266461757580252367 1.340420006122149398919419
2.274396082678614039451759 -0.03373594488092389320765818 1.341032070659743613560977
2.274396082678614039451759 0.03373594488092391402433989 1.341032070659743613560977
2.283010765677589759548027 0.01763197754554151480688162 1.332448066346305637352998
2.291545404784718797941423 0.03389603266461760355809929 1.340420006122150065053233
2.275361393557489009253914 -0.0004026115475905355086880255 1.324235994894920498410329
2.274878738118051302308231 0.0005626993312842882514340781 1.324316038786767402157807
2.266264055119076026301173 0.01660530929559259419314721 1.332900043100205600410391
2.258132027559537569061376 0.03367458750984981402654128 1.341404003521797116960101
2.258132027559537569061376 -0.0004639689186646491132239023 1.341404003521797116960101
2.334018001776646755729416 0.01529732978003862410576463 1.331963996446705156273538
2.342009000888323200229024 0.03264866489001932992053412 1.339954995558381378728541
2.342009000888323200229024 -0.002054005329942103393048303 1.339954995558381156683936
2.3328316185580630914842 -0.01791403444126496782851099 1.332146950114749817117854
2.341446301557039255669679 -0.03401800177664736357652231 1.340076964670410930580147
2.324155951003073372618246 -0.03389603266461759661920539 1.340259918338455813469068
2.324155951003073372618246 0.03389603266461763131367491 1.340259918338456035513673
2.3328316185580630914842 0.01791403444126501987021527 1.332146950114749595073249
2.341446301557038811580469 0.03401800177664740520988573 1.340076964670411152624752
2.325403318777671035633148 -0.0005626993312842411970597922 1.324033981891043598722035
2.324779634890371760036487 0.0006846684433140862169331342 1.324094966447058485670141
2.316103967335382041170533 0.01554126800409816669401586 1.332207934670764704065959
2.308051983667691153812029 0.03277063400204910381674495 1.340259918338456035513673
2.308051983667691153812029 -0.001688097993852792980118416 1.340259918338455813469068
2.384038108748848472373538 0.01525711583563620771242242 1.331923782502303144070765
2.392019054374424413822453 0.03262855791781810177454304 1.339904728127878863475075
2.392019054374424413822453 -0.002114326246545685482336463 1.33990472812787864143047
2.382658718376119644233313 -0.01805611052549594211513728 1.331953942960604653222845
2.391334385931110251277687 -0.03403810874884855702804387 1.339924835100080091621066
2.373972997335028978227456 -0.03401800177664737745431012 1.339954995558381600773146
2.373972997335028978227456 0.03401800177664738439320402 1.339954995558381600773146
2.382658718376119644233313 0.01805611052549594558458423 1.331953942960604653222845
2.391334385931110251277687 0.03403810874884855702804387 1.339924835100080091621066
2.375362441193857865329164 -0.000684668443314047727756011 1.323952890362827705672544
2.374667719264443199733705 0.0007047754155152317467186718 1.323962943848928208723237
2.365981998223352533727848 0.01529732978003860155435945 1.331963996446705156273538
2.35799099911167608922824 0.03264866489001931604274631 1.339954995558381378728541
2.35799099911167608922824 -0.002054005329942114235070028 1.339954995558381378728541
2.433966088299342356293664 0.01540115673464864665120899 1.332067823401315465048356
2.441983044149671044920069 0.03270057836732432471338328 1.340084779251644153674761
2.441983044149671044920069 -0.001898264898027038783540066 1.340084779251644153674761
2.43259254769306521026806 -0.01800419704819089528058385 1.331959792727055891248256
2.441278268734156320363127 -0.03396608829934234796699144 1.34001275880213821523057
2.423942836876727291439693 -0.03403810874884855008914997 1.33990472812787864143047
2.423942836876727291439693 0.03403810874884855008914997 1.339904728127878863475075
2.43259254769306476617885 0.01800419704819089528058385 1.331959792727056113292861
2.441278268734155876273917 0.03396608829934234796699144 1.34001275880213821523057
2.425280367258251246198597 -0.0007047754155152134237019568 1.324014857326233363110646
2.424611602067489268819145 0.0006327549660090132531073404 1.323978847101480393888551
2.415961891251151349990778 0.01525711583563620771242242 1.331923782502302922026161
2.407980945625575852631073 0.03262855791781808095786133 1.339904728127878863475075
2.407980945625575852631073 -0.002114326246545671604548655 1.33990472812787864143047
2.483857107257784413434365 0.01561911881776336524785265 1.332285785484430329361771
2.491928553628892206717182 0.03280955940888168054225815 1.340357231855537678555379
2.491928553628892206717182 -0.001571321773354956334925459 1.340357231855537900599984
2.482646087846545501776063 -0.01782319555712733386010349 1.332122313922094347660163
2.49129579866288297651522 -0.03385710725778498519922266 1.340248250813980357420974
2.474050867550986243514899 -0.03396608829934234796699144 1.340084779251644153674761
2.474050867550986243514899 0.03396608829934234796699144 1.340084779251644153674761
2.482646087846545501776063 0.01782319555712733386010349 1.332122313922094347660163
2.49129579866288297651522 0.03385710725778498519922266 1.340248250813980579465579
2.475207396441446938695208 -0.0006327549660090132531073404 1.324159848592544097556356
2.474629131996216813149658 0.0005237739244516525453226885 1.324105358071765436989153
2.466033911700657554888494 0.01540115673464864318176204 1.332067823401315465048356
2.458016955850328866262089 0.03270057836732432471338328 1.340084779251644153674761
2.458016955850328422172879 -0.001898264898027038783540066 1.340084779251644153674761
2.533751327454686563811492 0.01583115483317514698979878 1.332497583295234377942506
2.541875663727342971043299 0.03291581562119523518550324 1.340622157772498823646856
2.541875663727342971043299 -0.001253505954844939037501339 1.340622157772498823646856
2.532756966051197267120187 -0.01760843471247173705473976 1.332338971929844184671765
2.541352186346756525381352 -0.03375132745468675116162771 1.340516436308657688414314
2.524214635657187066897222 -0.03385710725778498519922266 1.340357528399402697871778
2.524214635657187066897222 0.03385710725778498519922266 1.340357528399402697871778
2.532756966051197267120187 0.01760843471247173705473976 1.332338971929844184671765
2.541352186346756525381352 0.03375132745468674422273381 1.340516436308657688414314
2.525156107159127305550328 -0.0005237739244516516779609505 1.324320118916420874199957
2.52468522313622489861018 0.0004179941213534213808634965 1.324267229014871816161758
2.516142892742214698387215 0.01561911881776336524785265 1.332285785484430329361771
2.508071446371107349193608 0.03280955940888168054225815 1.340357231855537678555379
2.508071446371107349193608 -0.001571321773354956334925459 1.340357231855537678555379
2.577789768097210387765017 0.004922919332984302884237415 1.327133151235773578235921
2.580087073548343212792133 -0.0003283084307185169252625567 1.32975876511762503007219
2.576518599264614017840813 -0.006808640136740672088588866 1.338256252666317758226455
2.570652819529751553773167 -0.02839822613639163967347301 1.344128126333159034544451
2.570652819529751553773167 0.01478094586291031110880656 1.344128126333159034544451
2.57741709325134316088679 -0.00566826902471895700125204 1.327088784820624756122243
2.568919605702650432732526 -0.02200662726066711719075109 1.335168516452571729757892
2.565723806264788464659432 -0.03825625266631765136748911 1.343710370416413057981231
2.568919605702650876821735 0.02200662726066710678241023 1.335168516452571729757892
2.565723806264788020570222 0.03825625266631763055080739 1.343710370416413280025836
2.57741709325134316088679 0.00566826902471894399082597 1.327088784820624756122243
2.575119787800209891770464 -0.0004170412610161364328105471 1.324463170938773304285974
2.574747112954343108981448 0.0003283084307185047821982249 1.324418804523624482172295
2.566249625405650380827183 0.01583115483317514698979878 1.332498536155571233763339
2.558124812702824879551144 0.03291486276085794915324811 1.340622634202667251557273
2.558124812702825323640354 -0.0012525530945076560410123 1.340622634202667251557273
2.184465506003466117590506 0.01440232132640065568218724 1.381068987993067098685174
2.192232753001733147613095 0.03220116066320034831083063 1.388836234991333906663158
2.192232753001733147613095 -0.003396518010399016563455321 1.388836234991333906663158
2.189382953797321285094313 -0.002740455443214373336402456 1.392123409240535458764043
2.181506363037856832676198 0.01483969637119041812267639 1.384246818481071450435138
2.189382953797321285094313 0.03241984818559523473524564 1.392123409240535458764043
2.183429251005990057166173 -0.01811228511173960248337167 1.382297078335856577169238
2.191919307226793289800071 -0.03446550600346636600290751 1.389654961886527040348938
2.182406422097054488062895 -0.01789359758934471952840362 1.383319907244792368317121
2.189982993170119573989041 -0.0342468184810714795784925 1.391809963465595600951019
2.182406422097054488062895 0.01789359758934467442559324 1.383319907244792590361726
2.189982993170119573989041 0.03424681848107145876181079 1.391809963465595600951019
2.183429251005990057166173 0.01811228511173955391111434 1.382297078335856799213843
2.191919307226793733889281 0.03446550600346634518622579 1.389654961886527040348938
2.175975449782662884956608 -0.0003134457749399328398143272 1.373711104442397079594684
2.175252640560126682345299 0.001132172670132978922058475 1.374120467889993424392969
2.174229811651190669152811 0.0009134851477380987860160699 1.375143296798929215540852
2.173929791964791746750052 -0.0003134457749399292077370494 1.37575676226026821780124
2.239878407453104181001891 -0.03446550600346631743065018 1.37330174099480029070719
2.223301740994800379525032 -0.03446550600346633130843799 1.388836234991333684618553
2.223301740994800823614241 0.03446550600346637988069531 1.388836234991333906663158
2.239878407453104181001891 0.03446550600346637294180141 1.373301740994800512751794
2.240920579914874366522781 -0.001312173086858842195948083 1.357767246998266674751221
2.232111160454837595068511 0.01648666624994085672106792 1.3655344939965332606846
2.240920579914874366522781 0.03428550558674051118579484 1.357767246998266674751221
2.215534493996533793591652 0.01440232132640072507112627 1.381068987993067098685174
2.207767246998267207658273 0.03220116066320038994419406 1.388836234991333906663158
2.207767246998266763569063 -0.003396518010398981868985802 1.388836234991333684618553
2.588264376503778940730172 0.006804580325774503904434631 1.373471246992441274770158
2.594132188251889736818612 0.02840229016288716573646056 1.379339058740551404724783
2.594132188251889736818612 -0.01479312951133814751925044 1.379339058740551404724783
2.582394534850186218477575 -0.03826437650377933347156656 1.367603435244331144815533
2.582394534850185330299155 0.03826437650377931265488485 1.367603435244331144815533
2.576526723102075422389134 -0.01666666666666668378260496 1.361735623496220792816302
2.570656881448482256047328 -0.01854426363296134139257987 1.355867811748110662861677
2.570656881448482256047328 0.01478906970037199321288401 1.355867811748110662861677
2.634480542384090462348922 0.01437224856515327033046336 1.381038915231820318751943
2.642240271192045408810145 0.03218612428257663915509568 1.388798644039775043168561
2.642240271192045408810145 -0.003441627152270072906997678 1.388798644039775043168561
2.626510373103043249898292 -0.02274491888786937116018194 1.375363164052286091276756
2.637309228021599505353834 -0.03448054238409003352527904 1.385014809920085854244576
2.617603435244331144815533 -0.03826437650377934041046046 1.379339058740551848813993
2.617603435244331144815533 0.03826437650377930571599094 1.379339058740551404724783
2.626510373103043249898292 0.02274491888786932258792461 1.375363164052286535365965
2.637309228021599061264624 0.03448054238409001270859733 1.385014809920085854244576
2.623681687465534206893381 -0.004931043170446028356401769 1.371387269364020555784123
2.620642561354932897899062 0.001147209050756643842344795 1.36949535230417596132213
2.611735623496221236905512 0.006804580325774488291923348 1.373471246992441274770158
2.605867811748110440817072 0.02840229016288716226701361 1.379339058740551404724783
2.605867811748110440817072 -0.01479312951133815619286782 1.379339058740551404724783
2.683865001394188709582522 0.01560713891601063496583635 1.382271901397150060120111
2.691932500697094443609103 0.03280547364353218059429551 1.390341304885582829342638
2.691932500697094443609103 -0.001591195811510917167835855 1.390341304885582829342638
2.681882306345185984497448 -0.01834554377827821505797523 1.381350638284330578642312
2.690789244203897645490997 -0.03386500139418821553327632 1.389727812267714135430197
2.673283138981425555158467 -0.03448054238408999189191562 1.388802596597334737538176
2.673283138981425111069257 0.03448054238408999883080952 1.388802596597334737538176
2.681882306345185984497448 0.01834554377827821852742218 1.381350638284330578642312
2.690789244203897645490997 0.03386500139418821553327632 1.389727812267714135430197
2.674958063535476604499763 -0.001147209050756662490622162 1.373894727413766503332226
2.674118624979670677532795 0.0005316680608548876498659075 1.373586956918815715766868
2.665519457615910248193813 0.01437224856515329114714508 1.381038915231819874662733
2.657759728807955301732591 0.03218612428257662527730787 1.388798644039775043168561
2.657759728807955301732591 -0.003441627152270038212528158 1.388798644039775043168561
2.726834832494742677511113 0.003020837531314708116619849 1.376186005036570403348151
2.728183044395857681507778 -0.0003244137290862638138728979 1.377858630666771277972771
2.722736144324243490189019 -0.0105693864141420262869886 1.386354170864647628036437
2.715941032351516071230435 -0.03025689061212339520112735 1.393177085432323547564692
2.715941032351516071230435 0.009118117783839346096597112 1.393177085432323547564692
2.726410601319647852847083 -0.003869299881504447650298895 1.376086187590561893401286
2.717915061121772168917232 -0.02021155281908484924180414 1.384051963913110583348498
2.712892392225253246351713 -0.03635417086464803881895591 1.392647321556995665403633
2.717915061121772168917232 0.02021155281908484924180414 1.384051963913110583348498
2.712892392225253246351713 0.03635417086464803881895591 1.392647321556995665403633
2.726410601319648296936293 0.003869299881504453288150192 1.376086187590561893401286
2.725062389418533292939628 -0.0005240486211034752319151697 1.374413561960361462865876
2.724638158243438912364809 0.000324413729086269722774738 1.374313744514352730874407
2.716142618045563228434958 0.01560713891601063496583635 1.382279520836901420821619
2.708071309022781925079926 0.03279785420378077132053107 1.390345114605458620715694
2.708071309022781480990716 -0.001583576371759510062475762 1.39034511460545839867109
2.186692609459585767694989 -0.005968868648497095003024882 1.44266147810808265106175
2.179354087567668685210265 0.0126874209010019618759646 1.435322956216165568577026
2.186692609459585767694989 0.0313437104505009805910376 1.44266147810808265106175
2.189382953797320841005103 -0.03424681848107143100623517 1.423629772278392602302688
2.180968294170309462742807 -0.01956977469723711685056777 1.432957917053142127272736
2.187768747194679619383351 -0.03532295621616569208933711 1.441747992960344504353998
2.180968294170309462742807 0.01956977469723718970895376 1.432957917053142127272736
2.187768747194679619383351 0.03532295621616572678380663 1.441747992960344504353998
2.189382953797320841005103 0.0342468184810714726395986 1.423629772278392602302688
2.189382953797321285094313 -0.002740455443214323896783391 1.407876590759463919511063
2.181506363037856832676198 0.0148396963711904753685511 1.415753181518928371929178
2.189382953797321285094313 0.03241984818559524167413954 1.407876590759463919511063
2.173091703410845454413902 0.001989622882832425138088794 1.425081326293677896899226
2.172553634543298528569721 -0.000913485147738059537897426 1.426532880308962969451159
2.736391215832245649153265 0.01055090166884267710578627 1.427217568335509279009443
2.743195607916122824576632 0.03027545083442129136841459 1.434021960419386676477416
2.743195607916122824576632 -0.009173647496735931952671628 1.434021960419386676477416
2.729577581375718597911373 -0.03639121583224527722855157 1.420413176251631881541471
2.729577581375718597911373 0.03639121583224527722855157 1.420413176251631881541471
2.722773189291841422488005 -0.0166666666666666664353702 1.413608784167754262028893
2.715959554835314371246113 -0.02417817058189675183399459 1.406804392083876864560921
2.715959554835314371246113 0.009155162751436584506192773 1.406804392083876864560921
2.784071200953160740709791 0.01519093142701204331157516 1.431857598093678740625023
2.792035600476580725626263 0.03259546571350602217620462 1.439821997617098503496891
2.792035600476580725626263 -0.002213602859481913435329981 1.439821997617098503496891
2.779115443394879036986822 -0.02046241678540588332380068 1.428377575775051866457943
2.788977717977668469018226 -0.034071200953160657443064 1.437501982738013994733706
2.770413176251631970359313 -0.03639121583224523559518815 1.434021960419386676477416
2.770413176251631970359313 0.03639121583224521477850644 1.434021960419386676477416
2.779115443394879036986822 0.02046241678540582781264945 1.428377575775051866457943
2.788977717977668469018226 0.03407120095316062968748838 1.437501982738013772689101
2.774208926370371308678386 -0.003057882498911928745299882 1.422733191130716834393866
2.772311051311001861563454 0.0007378676198272603875549791 1.421573183691174246945366
2.763608784167754794935945 0.01055090166884264935021065 1.427217568335509279009443
2.756804392083877619512577 0.03027545083442121504058164 1.434021960419386676477416
2.756804392083877619512577 -0.009173647496735890319308204 1.434021960419386676477416
2.826901251868287889834619 0.003099506227484558236462409 1.426198254359196671003929
2.828275255604757454364062 -0.0003514987545452126081919897 1.427923756850211889357638
2.822865679121635995585393 -0.01046765421169736261230998 1.43643283956081768693025
2.816082098902045416366491 -0.0302338271058486263154208 1.443216419780409154327572
2.816082098902045416366491 0.009298518682453921907482552 1.443216419780409154327572
2.826356568681101411044665 -0.004188872601857107288991777 1.426005069926555623993636
2.817847485970496279605868 -0.02050404051397858654071094 1.433776285017334561899816
2.812982592674560411438733 -0.03643283956081795615933316 1.442478552160581628527325
2.817847485970495391427448 0.0205040405139785310295597 1.433776285017334561899816
2.812982592674560411438733 0.03643283956081792840375755 1.442478552160581628527325
2.826356568681101411044665 0.004188872601857016216009288 1.426005069926556068082846
2.824982564944632290604432 -0.0007378676198273367153879221 1.424279567435541071773741
2.824437881757445811814478 0.000351498754545120938898306 1.424086383002900024763449
2.815928799046839792197261 0.01519093142701203637268126 1.431857598093678518580418
2.807964399523419807280789 0.03259546571350600829841682 1.439821997617098503496891
2.807964399523419807280789 -0.002213602859481899557542173 1.439821997617098503496891
2.189635941313749611936146 -0.002436870423500168362368479 1.492072811737250148667044
2.18170875305099976060319 0.01504208638433322288430194 1.484145623474500297334089
2.189635941313749611936146 0.03252104319216662237090887 1.492072811737250148667044
2.186692609459585767694989 -0.03532295621616574760048834 1.472015565675751425089857
2.179942753938501454058496 -0.01946857969066581595107834 1.480755044079668181211673
2.188458608572084074239683 -0.03414562347450006418725366 1.490083188854417706181721
2.179942753938501454058496 0.01946857969066579513439663 1.480755044079668181211673
2.188458608572084074239683 0.03414562347450005724835975 1.490083188854417706181721
2.186692609459585767694989 0.03532295621616574066159444 1.472015565675751425089857
2.186692609459585767694989 -0.005968868648497154850984803 1.457338521891917260120408
2.179354087567668685210265 0.01268742090100192024260117 1.464677043783834342605132
2.186692609459585767694989 0.03134371045050100140771931 1.457338521891917260120408
2.172604232046583927484562 0.0008122901411667201492308732 1.473416522187751098726949
2.173192898417417140422003 -0.001989622882832424270727056 1.474817478699750772364041
2.836432839560818486290827 0.01046765421169726373307185 1.477134320878363826778923
2.84321641978040950959894 0.03023382710584864366265556 1.483917901097954850087035
2.84321641978040950959894 -0.00929851868245413007429967 1.483917901097954850087035
2.829649259341227462982715 -0.03643283956081803942606001 1.470350740658773247560021
2.829649259341227462982715 0.03643283956081806024274172 1.470350740658773247560021
2.822865679121635995585393 -0.01666666666666664908813544 1.463567160439182224251908
2.816082098902044528188071 -0.02403481465087928259372063 1.456783580219591200943796
2.816082098902045416366491 0.009298518682454053746466727 1.456783580219591200943796
2.883965405057461239834993 0.01618737598788102388658316 1.482461616269813209356698
2.89198270252873079755318 0.03348611437867513723753987 1.49087134012581756792315
2.89198270252873079755318 -0.001111362402913091632777887 1.49087134012581756792315
2.880800328867357595896692 -0.02039824461827882684517022 1.480168257143230414740742
2.890683415314433624132562 -0.03396540505746078325577386 1.489811698250913085672664
2.872150959671960102070898 -0.03643283956081804636495391 1.485718120111142681594174
2.872150959671960102070898 0.03643283956081806024274172 1.485718120111142903638779
2.880800328867357595896692 0.02039824461827883378406412 1.480168257143230414740742
2.890683415314433624132562 0.03396540505746078325577386 1.489811698250913529761874
2.874082318610384767509913 -0.003099506227484712193170902 1.472818175162130316380171
2.872216529634578741081441 0.0006320717241274538544804074 1.471584457910451781970096
2.863567160439181691344857 0.01046765421169725332473099 1.477134320878363826778923
2.856783580219591556215164 0.03023382710584863325431471 1.483917901097954850087035
2.856783580219591556215164 -0.009298518682454133543746622 1.483917901097954850087035
2.902453320868760844319922 -0.04591468898968698031382019 1.498368009858447758020361
2.903674645646708629698196 -0.01584533593945813834125147 1.496736019716895516040722
2.902453320868760844319922 0.01422401711077062209931388 1.498368009858447758020361
2.902042655505156609763162 -0.04673601971689542861065902 1.498128364519054844805623
2.902042655505156609763162 0.04673601971689550493849197 1.498128364519054844805623
2.901631990141552819295612 0.04625672903810985892025798 1.497888719179662375680095
2.903263980283104395141436 0.01618737598788109674496916 1.496496374377502824870589
2.901631990141552819295612 -0.01388197706234773828870566 1.497888719179662375680095
2.192340869821087334656795 0.004045218926524209515638297 1.511704349105436495648291
2.184681739642174491677906 -0.01666666666666666296592325 1.51936347928434933862718
2.192340869821087334656795 -0.02928811440680911815093168 1.511704349105436495648291
2.176192078339249214025131 -0.0003126559391844095582742302 1.526504734278433694782962
2.175361547215236335262034 0.001348406308841387703928438 1.525986859093605207959854
2.182789101276004117835328 -0.01882736311667474599085281 1.516934724750504059898049
2.191528579679920429867934 -0.03468173964217471233473233 1.510355942796595352106692
2.175111730114244856792993 -0.002473352389192493179514987 1.525424386053429559595429
2.175111730114244856792993 0.002473352389192500118408891 1.525424386053429559595429
2.182789101276004117835328 0.01882736311667475292974672 1.516934724750504059898049
2.191528579679920873957144 0.03468173964217471233473233 1.510355942796595352106692
2.189635941313749611936146 -0.002436870423500128463728531 1.507927188262750073377561
2.18170875305099976060319 0.01504208638433323502736627 1.515854376525499924710516
2.189635941313749611936146 0.03252104319216660155422716 1.507927188262749851332956
2.174031381889241387739276 0.000312655939184416226117591 1.524344037828425424407897
2.174281198990232422119107 -0.0008122901411666957546819923 1.524906510868601294816926
2.238353554484447283101645 -0.003987315336639892134062979 1.542340869821087423474637
2.230665472510592994836998 0.01402775763886817891878955 1.534681739642174580495748
2.238353554484447727190854 0.03204283061437626645151511 1.542340869821087423474637
2.223006342331680151858109 -0.03468173964217474702920185 1.527022609463262181606069
2.223006342331680151858109 0.03468173964217474009030795 1.527022609463261959561464
2.207659130178912576525363 0.004045218926524231199681747 1.511704349105436495648291
2.215318260357825419504252 -0.01396985404898385026151164 1.51936347928434933862718
2.207659130178912576525363 -0.03198492702449191871227896 1.511704349105436495648291
2.934398319421128498163398 0.01456124540515100693194306 1.53121563661478043982811
2.942199159710563893810331 0.032292898159612989927858 1.539028752361253582492395
2.942199159710563893810331 -0.003170407349310969125077975 1.539028752361253582492395
2.925943158407501520912319 -0.03439831942112865637017904 1.523414796325344600091967
2.925943158407501520912319 0.03439831942112864249239124 1.523414796325344600091967
2.918142318118065681176176 -0.01666666666666667684371106 1.515601680578871679472286
2.909687157104439592103517 -0.03144701651832956801335683 1.507800840289435839736143
2.909687157104439592103517 0.001886316815003767025787917 1.507800840289435839736143
2.975861071607805996563911 0.001132782132703968620141 1.525271710524897850191905
2.976280122403430539179681 -0.0002946805414543257834250611 1.525985441861976932287348
2.968973110036082552198877 -0.01431934419324160275011071 1.534466115466037283709966
2.961247046873110466691514 -0.03211879299261224951500537 1.542233057733018997126351
2.961247046873110022602305 0.003480104606129049652635254 1.542233057733018775081746
2.975205847294601912977896 -0.002443230759111535577848828 1.524911166753148084040959
2.966725173690541339510673 -0.01881521688432388414446983 1.532339129726450810409233
2.960073385636397436115885 -0.03446611546603731146554139 1.541180347102260927982798
2.966725173690541339510673 0.01881521688432386332778812 1.532339129726450810409233
2.960073385636397436115885 0.03446611546603730452664749 1.541180347102260705938193
2.975205847294601912977896 0.002443230759111507388592344 1.524911166753148084040959
2.974786796498977370362127 -0.00101576808495324106586255 1.524197435416069001945516
2.974131572185773286776111 0.0002946805414542977567989024 1.523836891644319679883779
2.965650898581712713308889 0.01456124540515100693194306 1.531264854617622406252053
2.957825449290855779338472 0.03224368015677089860382409 1.53905336136267423263746
2.957825449290855779338472 -0.003121189346468878668405811 1.539053361362674454682065
2.242108617418845373236991 0.002780325365799707522385109 1.560671707946954089862857
2.234217234837690746473982 -0.01666666666666661439366592 1.56849878010174581532965
2.242108617418845373236991 -0.03055300796753362968516399 1.560671707946954533952066
2.225741913854859532762021 -0.0002839752989959121805448039 1.576025889153855885638222
2.225157975453182501723859 0.00088390150435791868966523 1.575725926051174896613816
2.231839860195827363043009 -0.01878250692259535864492292 1.566492648043060320617315
2.240789162904945897025755 -0.03421723483769115170538555 1.559723496016233612593282
2.224683993726895181453074 -0.002399815554924654426027786 1.574967969025891534329276
2.224683993726895181453074 0.002399815554924802744884982 1.574967969025891534329276
2.231839860195827363043009 0.01878250692259545925888453 1.566492648043060320617315
2.240789162904946341114965 0.03421723483769120721653678 1.559723496016233390548678
2.238411788263082513594782 -0.003870847779369350916828241 1.557717363957548117880947
2.230781940067863011734062 0.01402775763886823789938774 1.565434727915095969308368
2.238411788263082513594782 0.03192636305710577770966552 1.557717363957547895836342
2.223626073598930830144127 0.0002839752989960605536121085 1.573910048897927183020329
2.224100055325218150414912 -0.001231938751570823501607643 1.574668005923210545304869
2.298588269179837162425883 0.04152961507902229454369802 1.592941345899185678902654
2.297176538359674058398241 -0.01666666666666653112693908 1.594353076719348338841087
2.298588269179837162425883 0.008196281745688958203510666 1.592941345899185456858049
2.288358438810331740853599 -0.0009695324320171000995541299 1.589327971242349590852427
2.280952070081152971425809 0.01384320502634074287473531 1.58289113494518796088073
2.295709045679582338550517 -0.04717653835967389880368117 1.592885584039256841037968
2.273103502963828237426469 -0.03147940412502446549947166 1.575021247326567008784082
2.279042379012915731095745 -0.04717653835967389186478727 1.57999059094363714095266