# geometry NO_DATA 656
#  x  y  z
0.7430790970572389575465877 0.008474582343433626624440436 0.415395485286194632301715
0.7361581941144779150931754 -0.01666666666666667337426411 0.4223163882289556747551273
0.7430790970572389575465877 -0.02485875098989970624629997 0.415395485286194632301715
0.7223163882289558301863508 -0.01101694510437748256159729 0.4361581941144778706842544
0.715395485286194898755241 -0.03050847255218869930049053 0.4430790970572389131376667
0.715395485286194898755241 0.00847458234343374111618985 0.4430790970572389131376667
0.7292372911717169836620656 -0.03615819411447789011315734 0.4153954852861947433240175
0.715395485286194898755241 -0.03615819411447789011315734 0.4292372911717168837419933
0.715395485286194898755241 0.03615819411447788317426344 0.4292372911717168837419933
0.7292372911717169836620656 0.03615819411447787623536954 0.4153954852861947988351687
0.7920188839144755021948185 0.002113303486853579122445312 0.4100944195723783547435914
0.7840377678289507379361112 -0.01666666666666667337426411 0.4180755356579021198015766
0.7920188839144755021948185 -0.03122002984647976112086987 0.4100944195723783547435914
0.7742920041050451729347515 -0.002824860781144595840014277 0.4271168648861896066648569
0.7725273564666641501474942 0.0007044344956172656369713936 0.428177078028953328470152
0.7760566517434259736774038 -0.03403776782895061303602091 0.4100944195723773555428693
0.7656064535239029966717794 -0.02019596194342853159864326 0.421256175086192119483286
0.7593899850767591441780269 -0.03403776782895061303602091 0.4122148458579037999527372
0.7663108880195201866314392 0.02019596194342851772085545 0.4191357488006648979173008
0.7576253374383782324130721 0.03615819411447791092983906 0.4132750590006675217580323
0.7760566517434259736774038 0.0340377678289505991582331 0.4100944195723774665651717
0.7569209029427610424534123 0.008474582343433661318909955 0.4153954852861947433240175
0.7638418058855220849068246 -0.01101694510437759358389975 0.422316388228955841288581
0.7569209029427610424534123 -0.03050847255218884848670946 0.415395485286194632301715
0.8418681326453866242687241 0.001208795872315802412411134 0.4093406632269293021764156
0.8337362652907731597196062 -0.01666666666666667337426411 0.4174725305815444320600704
0.8418681326453866242687241 -0.03212453746101753132569101 0.4093406632269293021764156
0.8250507147096294291443996 -0.0007044344956209102909944209 0.4257551492052502606355802
0.8244970314830990520960086 0.0004029319574396675145144808 0.4259059004743408483051326
0.8256043979361580298359513 -0.03373626529077301816617052 0.4093406632269293021764156
0.8165159153975762862387455 -0.01777403311972725399869866 0.4179247843888151958680055
0.8089377312694914223811793 -0.03373626529077301816617052 0.4096421657651094783147983
0.8169188473550141882384423 0.0177740331197272366514639 0.4176232818506351307519253
0.8083840480429610453327882 0.03403776782895423513863875 0.4097929170342000659843507
0.8256043979361580298359513 0.03373626529077301122727661 0.4093406632269294131987181
0.8079811160855230323107889 0.002113303486857201658744021 0.4100944195723801311004308
0.8159622321710459091903545 -0.01525779767543036964660974 0.4180755356579057835375579
0.8079811160855229212884865 -0.03262889883771792620681396 0.4100944195723801866115821
0.8918418824045329929006698 0.001051294427198887736218946 0.4092094120226657527616965
0.8836837648090662966637865 -0.01666666666666668031315801 0.4173675296181325600208822
0.8918418824045329929006698 -0.03228203890613445120605363 0.4092094120226657527616965
0.8751489654970141529588545 -0.0004029319574375319614953361 0.4255518974544516552782625
0.8747722837804288165131084 0.0003504314757329450688745631 0.4255781476953038877653057
0.8755256472135998224715081 -0.03368376480906630499045917 0.4092094120226661968509063
0.8666404164258143527632683 -0.01742003009983715544617411 0.4174462803406898681046755
0.8588589805469332150167361 -0.03368376480906629805156527 0.4092619125043712724476563
0.8669908479015477897888786 0.0174200300998371346294924 0.4173937798589852921082866
0.8584822988303481006155948 0.03373626529077084629237859 0.409288162745223615957002
0.8755256472135998224715081 0.03368376480906629805156527 0.4092094120226661968509063
0.8581318673546146635899845 0.001208795872313634224906598 0.4093406632269281364422397
0.8662637347092291273398246 -0.01586080275179055365519787 0.41747253058154215610287
0.8581318673546146635899845 -0.0329304013758947231038654 0.4093406632269281364422397
0.9418637805504366244946368 0.001182683302621868881576717 0.4093189027521847433988
0.933727561100873626465102 -0.0166666666666666664353702 0.4174551222017477969394861
0.9418637805504366244946368 -0.03215065003071146398916369 0.4093189027521847433988
0.9252190120296737152472133 -0.0003504314757329707102559424 0.4255694435054070412505212
0.9248466824080370241034643 0.0003942277675406134014764181 0.4255475453595032875320214
0.9255913416513107394578697 -0.03372756110087395814423061 0.4093189027521848544211025
0.916688564812570327866581 -0.01741132590994025688968527 0.4173894277640364802728357
0.9089246749846441320030976 -0.03372756110087396508312452 0.4092751064603772359618006
0.9170827925801108282399809 0.01741132590994024648134442 0.4174332240558440987321376
0.9085523453630074408593487 0.03368376480906629805156527 0.4092532083144734267321496
0.9255913416513107394578697 0.03372756110087395120533671 0.4093189027521848544211025
0.9081581175954666074190413 0.001051294427198890771985029 0.4092094120226657527616965
0.9163162351909335257005296 -0.01596580371520074301261438 0.4173675296181326155320335
0.9081581175954666074190413 -0.03298290185760037462880945 0.4092094120226658082728477
0.9919872287770058472133883 0.001923372662035495450627565 0.4099361438850294137026253
0.9839744575540116944267766 -0.01666666666666666990481716 0.4179489151080235664892371
0.9919872287770058472133883 -0.03140996067129783742011284 0.4099361438850294137026253
0.9754440103369081960238418 -0.000394227767540619039327715 0.4258382381044486519883208
0.9749263343427987393852163 0.0006411242206784996400248389 0.4257147898778797512342464
0.9759616863310176526624673 -0.03397445755401182904131829 0.4099361438850294137026253
0.9667901148932355193110766 -0.01770201865488578094054439 0.4175785704283166976935604
0.9592950196643508231630904 -0.03397445755401182210242439 0.4096892474318916121944767
0.9674312391139140432372301 0.0177020186548857878794383 0.4178254668814546102240115
0.9587773436702413665244649 0.03372756110087395814423061 0.4095657992053226559292511
0.9759616863310176526624673 0.0339744575540118359802122 0.4099361438850294137026253
0.9581362194495628425983114 0.001182683302621871049981062 0.4093189027521847433988
0.9662724388991259516501486 -0.01587821113158541935783674 0.4174551222017477969394861
0.9581362194495627315760089 -0.0329391055657927006583563 0.4093189027521847433988
1.042738583471672253466522 0.006431500830034926792511119 0.4136929173583624441690176
1.035477166943344906613333 -0.01666666666666666990481716 0.4209543338866899020445089
1.042738583471672253466522 -0.02690183250329841041503798 0.4136929173583623886578664
1.026823271499672118878266 -0.0006411242206785005073865769 0.4274643957203508870534847
1.025430792584327122085597 0.002143833610011637927361683 0.4267130410256843031646667
1.028215750415017559760145 -0.03547716694334497600227252 0.4136929173583623886578664
1.017418021361333302365892 -0.01945162449735680920692715 0.418700269802690150378055
1.011549083748350508216163 -0.03547716694334497600227252 0.4121902079690292208802305
1.019561854971344772025077 0.0194516244973568057374802 0.420202979192023318155691
1.010156604833005511423494 0.0339744575540118359802122 0.4114388532743626925025637
1.028215750415017115670935 0.03547716694334497600227252 0.4136929173583623886578664
1.008012771222994041764309 0.001923372662035493065382785 0.4099361438850294137026253
1.016025542445988083528619 -0.01538441822530967409421443 0.4179489151080235664892371
1.008012771222994041764309 -0.03269220911265484363905642 0.4099361438850294137026253
1.086679410373777132647888 -0.006059173097895530386847174 0.4427385834716724422044365
1.079231829979379941875095 0.01275132717878277484324645 0.435477166943344928817794
1.086679410373777132647888 0.03156182745546108614487224 0.4427385834716724422044365
1.071970413451052372977301 -0.03547716694334497600227252 0.4282157504150174709423027
1.071970413451052372977301 0.03547716694334497600227252 0.4282157504150174709423027
1.05726141652832739126211 0.006431500830034924190425905 0.4136929173583623886578664
1.064522833056655182204508 -0.01237899944664339058064684 0.4209543338866899020445089
1.05726141652832739126211 -0.0311894997233216966781022 0.4136929173583623886578664
0.6924013020132477880252964 0.004407812079485331178962948 0.4620065100662376633700035
0.6848026040264953984149088 -0.01666666666666667684371106 0.4696052080529901084915423
0.6924013020132477880252964 -0.02892552125384800776330962 0.4620065100662376633700035
0.6696052080529902861272262 -0.01372812528034315221470152 0.4848026040264951097569224
0.6620065100662377854945362 -0.03186406264017164341462163 0.4924013020132476103896124
0.6620065100662377854945362 0.004407812079485354597729874 0.4924013020132476103896124
0.6772039060397428977822187 -0.03480260402649516804363117 0.4620065100662377188811547
0.6620065100662380075391411 -0.03480260402649516804363117 0.4772039060397427201465348
0.6620065100662378965168386 0.03480260402649516804363117 0.4772039060397427201465348
0.6772039060397428977822187 0.03480260402649516804363117 0.4620065100662378299034572
0.7280223286741224208995504 0.0003949357859560694451045437 0.472372607111833708870563
0.7268073661765283022262452 -0.002824860781144328692598977 0.4739825053953838907006002
0.7246603004393753488798779 -0.001469270693161594263168035 0.4761295711325368440469674
0.723728197199816514206816 0.0003949357859560700956258472 0.4766667385861396155632974
0.7186715007361730300772251 -0.01988646323376706478991416 0.4658466399550286185515802
0.712965560291006328341723 -0.03615819411447766806855242 0.4573158387287172832458282
0.7161294992130639025518235 -0.01853087314578433231204713 0.4690680405993872259529098
0.7089257370122675760981679 -0.03372826911928940296636625 0.4603950077054291822875598
0.7165244349990200767308579 0.01853087314578433578149408 0.4679937056921815718979474
0.7079936337727087414251059 0.03480260402649493212123843 0.4609321751590319538038898
0.7211014257313614894684406 0.01988646323376706825936111 0.465451704169072499883697
0.7117505977934120986461153 0.03372826911928940296636625 0.4589257370122674650758654
0.7223163882289558301863508 -0.0166666666666666664353702 0.4638418058855223180536598
0.715395485286194898755241 -0.02485875098989981379915548 0.4569209029427611090667938
0.715395485286194898755241 0.008474582343433526010478829 0.4569209029427611090667938
0.7075986979867527892906764 0.004407812079485097858655429 0.4620065100662376078588522
0.715197395973505178901064 -0.0137281252803431678272128 0.4696052080529899974692398
0.7075986979867527892906764 -0.03186406264017143524780451 0.4620065100662376078588522
1.091882558048195450695061 0.001699709129766719273996189 0.459817151081571229287448
1.083765116096390812572281 -0.01666666666666666296592325 0.4677324126130789072597338
1.091882558048195450695061 -0.03163362420356662096931899 0.459817151081571229287448
1.075333981116948445233561 -0.0001956032922182815317422439 0.4755295844091668167052944
1.075020288089310493973016 0.0004317827630577437481376735 0.4754114946737471592008717
1.080906856819390693402738 -0.01846784573278333757562208 0.4661978598966660669589146
1.089924888304253602910876 -0.03376511609639107347469178 0.4591831878982167158831373
1.074433391583890173848204 -0.001996782358334959258522323 0.4746289948761085453199371
1.074433391583890173848204 0.001996782358334975304714476 0.4746289948761084898087859
1.080906856819390693402738 0.01846784573278335145340989 0.4661978598966660669589146
1.089924888304253602910876 0.03376511609639107347469178 0.4591831878982167158831373
1.087066629027253483741333 -0.005284735790942823863147737 0.4576486351818038755823181
1.080006267286332644061986 0.01275132717878278872103426 0.4652972703636076845512548
1.087066629027253483741333 0.0307873901485083978357693 0.4576486351818038755823181
1.073532802050831680418241 0.0001956032922182974966192337 0.4737284053430501629122773
1.074119698556252000543054 -0.00136939630305893400574746 0.4745109051406888323043631
1.143555280226519421660214 0.01133168135911664931025911 0.4677764011325971638122212
1.137110560453038710093665 -0.0166666666666666594964763 0.4742211209060777088453165
1.143555280226519421660214 -0.0220016519742166835604813 0.4677764011325971638122212
1.128427105999382451528845 -0.0007002422406456656209586265 0.4791273482400282834881011
1.126188371319206904530574 0.003777227119705559021944907 0.4775888558004983686089417
1.130371857464402385318181 -0.03711056045303887801489751 0.4674824179174414950921346
1.118205159106196333596017 -0.02114413602701788533200222 0.469539364530196734470735
1.113705190797735777863409 -0.03711056045303887801489751 0.4643391539810904355967125
1.121688403010746348797966 0.02114413602701789574034308 0.472388645251392014223768
1.111466456117560230865138 0.03403357557397901356210923 0.4628006615415605207175531
1.130371857464402385318181 0.03711056045303888495379141 0.4674824179174414950921346
1.107983212213010437707794 0.001968168607354658927732771 0.4599513808203651299422177
1.115966424426020786597746 -0.01539874029995768126011235 0.4680008720906668195915756
1.107983212213010437707794 -0.03276564920727002838685138 0.4599513808203651299422177
1.182223598867402580836483 -0.01133168135911664410608868 0.4935552802265193994557535
1.175778879093921869269934 0.009112212427255570942885576 0.4871105604530388544226582
1.182223598867402580836483 0.02955610621362778772658331 0.4935552802265193994557535
1.169334159320441601792595 -0.03711056045303888495379141 0.480665840679558309389563
1.169334159320441601792595 0.03711056045303888495379141 0.480665840679558309389563
1.156444719773480400704102 0.01133168135911664584081215 0.4677764011325972193233724
1.162889439546960890226046 -0.0091122124272555692081621 0.4742211209060778198676189
1.156444719773480400704102 -0.02955610621362778425713635 0.4677764011325972193233724
0.6429850228535767264759215 0.007910137121460341161349739 0.5149251142678836767885286
0.6359700457071534307473826 -0.01666666666666666296592325 0.5219400914143068614947651
0.6429850228535767264759215 -0.02542319621187298997466719 0.5149251142678836767885286
0.6219400914143068392903047 -0.01139324191902645229401703 0.5359700457071533419295406
0.6149251142678835435617657 -0.03069662095951321972853165 0.5429850228535766376580796
0.6149251142678835435617657 0.007910137121460308201603695 0.5429850228535766376580796
0.6289550685607302460411461 -0.03597004570715342519626745 0.5149251142678836767885286
0.6149251142678837656063706 -0.03597004570715342519626745 0.5289550685607302682456066
0.6149251142678837656063706 0.03597004570715343213516135 0.5289550685607302682456066
0.6289550685607303570634485 0.03597004570715342519626745 0.5149251142678836767885286
0.6766648299408581923586326 0.000391118495393077286476774 0.5237262885545349577753882
0.6761257538419740420465587 -0.001469270693161553497166349 0.5246564831488123026304038
0.6740727623084832309530157 -0.002636712373819786146833533 0.5267094746823028916793419
0.6725588468738767922161514 0.0003911184953930771238464481 0.5278322716215162468955668
0.6679879797563371690571898 -0.01852705585522128328701541 0.5165187090631755406633374
0.6609283578684689297588761 -0.03480260402649489048787501 0.5079898164821458061979342
0.66554386972745338546531 -0.01969449753587951615352303 0.5208172944750932842339353
0.6589200110764230622351079 -0.03372445182872638169691015 0.5115567234502431670506439
0.6659349882228463579636468 0.01969449753587954390909864 0.518571700596666240734578
0.6574060956418165124759412 0.03597004570715314070161739 0.5126795203894564112445664
0.669066131954105802748245 0.01852705585522130757314407 0.5161275905677824571426981
0.6603892817695846684244998 0.03372445182872639557469796 0.5089200110764229290083449
0.6696052080529899530603188 -0.01666666666666665602702935 0.515197395973505223309985
0.6620065100662376744722337 -0.0289255212538482332773615 0.5075986979867526116549925
0.6620065100662376744722337 0.004407812079485096123931953 0.50759869798675250063269
0.6570149771464233179329995 0.00791013712146005146252925 0.5149251142678834547439237
0.6640299542928468357061433 -0.01139324191902641239537708 0.5219400914143066394501602
0.6570149771464234289553019 -0.03069662095951288666162426 0.5149251142678835657662262
1.192484534355776837344365 0.004907206134662624695541577 0.5124226717788854523760733
1.184969068711553941142256 -0.01666666666666666990481716 0.5199381374231083485781824
1.192484534355776837344365 -0.028426127198670714246731 0.5124226717788854523760733
1.176421706703946190586407 -0.0004280573485488606971793857 0.5268497640524951730611747
1.175389810340561336232668 0.00163573537822087446483299 0.5262459250376592123643604
1.178485360342885091000653 -0.02207962916459309254957333 0.5155959207959243117969095
1.188707307236071430978086 -0.03496906871155421037133948 0.5107869364006645263032169
1.173715225454982968855688 -0.00584101984647528247457382 0.5241432828035319513304557
1.173715225454982968855688 0.005841019846475283341935558 0.5241432828035319513304557
1.178485360342885091000653 0.02207962916459309254957333 0.5155959207959243117969095
1.188707307236071430978086 0.03496906871155421037133948 0.5107869364006645263032169
1.182223598867402580836483 -0.01133168135911664410608868 0.506444719773480489521944
1.175778879093921869269934 0.009112212427255570942885576 0.5128894395469610900661905
1.182223598867402580836483 0.02955610621362778772658331 0.506444719773480489521944
1.171008744206019747124969 0.0004280573485488606971793857 0.5214368015545688406220393
1.172683329091598114501949 -0.003777227119705548613604051 0.5235394437886959906336415
1.237577328221114436601624 -0.004907206134662627297626791 0.5424845343557770371845095
1.23006186257689131835491 0.01339519591022490969944858 0.5349690687115541409824004
1.237577328221114436601624 0.03169759795511245537014133 0.5424845343557770371845095
1.222546396932668644197406 -0.03496906871155421037133948 0.5274536030673312447802914
1.222546396932668644197406 0.03496906871155420343244558 0.5274536030673312447802914
1.207515465644222851793188 0.004907206134662622960818101 0.5124226717788855633983758
1.215030931288445525950692 -0.01339519591022492357723639 0.5199381374231083485781824
1.207515465644222851793188 -0.03169759795511246230903524 0.5124226717788854523760733
0.6279772442840322321799817 0.0006810638204251436012004461 0.57270381953639248884258
0.6269994200073348844526322 -0.00263671237381993836881855 0.5743627076335149350683196
0.6180287943075168932693941 -0.01530453902581632892598851 0.5840143971537583578168551
0.6100359928843961387912032 -0.03265226951290814416672958 0.5920071985768792233173485
0.6100359928843961387912032 0.002043191461275491952603867 0.5920071985768792233173485
0.6190066185842142409967437 -0.01998444286091175317587876 0.5663699062103942916124311
0.6129694657144885150401592 -0.03597004570715327254060156 0.5576960409668483276135476
0.6100359928843962498135056 -0.03401439715375848688028171 0.5760215957306377143609666
0.6100359928843961387912032 0.0340143971537584799413878 0.5760215957306377143609666
0.6209622671376091584960477 0.01998444286091174623698485 0.5656888423899690820917385
0.6119916414377910562905072 0.0340143971537584799413878 0.5593549290639709958838921
0.6219400914143065062233973 -0.01666666666666666990481716 0.5640299542928466358659989
0.6149251142678834325394632 -0.02542319621187319467203736 0.5570149771464232291151575
0.6149251142678834325394632 0.007910137121460141668150001 0.5570149771464232291151575
1.242374591353268442617264 0.004247548119609989743239442 0.5618729567663416357703454
1.234749182706536663189922 -0.01666666666666665602702935 0.5694983654130734151976867
1.242374591353268442617264 -0.0290857852137233370559688 0.5618729567663416357703454
1.2262383956274944818432 -0.0003549074914173114205125092 0.5765933031189121038551093
1.22535301719518407992382 0.001415849373203336997867341 0.5760628321780190130851906
1.231587654952603472224837 -0.01971825141809086315292099 0.5665567236641578796607632
1.24073885597504762756671 -0.03474918270653665208769212 0.560457107393138365125651
1.224712603251782327973274 -0.003406492242841513504864048 0.5750675107431999499851827
1.224712603251782327973274 0.003406492242841532153141415 0.5750675107431999499851827
1.231587654952603472224837 0.01971825141809087356126184 0.5665567236641578796607632
1.24073885597504762756671 0.03474918270653665902658602 0.560457107393138365125651
1.237577328221114436601624 -0.004907206134662622960818101 0.5575154656442228295887276
1.23006186257689131835491 0.01339519591022491837306596 0.5650309312884458368131391
1.237577328221114436601624 0.03169759795511245537014133 0.5575154656442228295887276
1.223186810876070174103347 0.0003549074914173293640584639 0.5735417183674879071375585
1.223827224819471926053893 -0.001635735378220865574375176 0.574537039802306859215264
1.288127043233658231002892 -0.004247548119609980202260324 0.5923745913532683093905007
1.280501634586926673620155 0.01383496792026002106257287 0.5847491827065366409854619
1.288127043233658231002892 0.03191748396013001365378869 0.5923745913532683093905007
1.272876225940195116237419 -0.03474918270653665208769212 0.5771237740598049725804231
1.272876225940195116237419 0.03474918270653666596547993 0.5771237740598049725804231
1.257625408646731779427341 0.004247548119609992345324656 0.5618729567663416357703454
1.265250817293463558854683 -0.01383496792025999677644421 0.5694983654130734151976867
1.257625408646731779427341 -0.03191748396012998589821308 0.5618729567663416357703454
0.6258794996220453654700577 0.0003968716032407262808007209 0.6245173719811952794955801
0.6257374035134530831925304 -0.0006810638204251082562096231 0.6250563396930282067387452
0.6174604098731478751815871 -0.01587292346018519956230008 0.6337302049365740597153263
0.6093255123414349494481712 -0.03293646173009258382169406 0.6418651024682869854487421
0.6093255123414349494481712 0.00119061480972217775819999 0.6418651024682869854487421
0.6176025059817402684814169 -0.01774460209033249663557186 0.6169214421613152810053293
0.6097518006672117962807533 -0.03401439715375845218581219 0.6083896730263615992839732
0.6093255123414350604704737 -0.03373020493657404722531723 0.6255953074048610229596079
0.6093255123414349494481712 0.03373020493657405416421113 0.6255953074048612450042128
0.6178866981989246109918668 0.01774460209033251051335967 0.6165245705580745250173891
0.609609704558619514003226 0.03373020493657405416421113 0.6089286407381944155048359
0.6180287943075168932693941 -0.01666666666666666296592325 0.6159856028462415977742239
0.6100359928843962498135056 -0.0312901418720578639032226 0.6079928014231208432960329
0.6100359928843961387912032 0.002043191461275469834879548 0.6079928014231208432960329
1.292876990845301943267032 0.007261945071811892055135829 0.6143849542265098495619213
1.285753981690603620080537 -0.01666666666666667337426411 0.6215079633812079507038106
1.292876990845301943267032 -0.02607138826152144775449848 0.6143849542265098495619213
1.27722936051710256322167 -0.0003825756803356655322626012 0.6276119361974383803470801
1.275827748498299385460086 0.002420648357270622445108765 0.6265928998589709308930651
1.282419883452163400505697 -0.02050316439714063368460195 0.617169066158700374558066
1.291461141472098450577732 -0.03575398169060396702523263 0.611964305869239222346323
1.275311111651865392246918 -0.004219073410809624433137621 0.6256936873322014314169337
1.275311111651865614291523 0.004219073410809608820626337 0.6256936873322014314169337
1.282419883452163400505697 0.0205031643971406232762611 0.617169066158700374558066
1.291461141472098450577732 0.03575398169060396702523263 0.611964305869239222346323
1.288127043233658231002892 -0.004247548119609987141154228 0.6076254086467316462005783
1.28050163458692645157555 0.01383496792026000718478507 0.6152508172934634256279196
1.288127043233658231002892 0.03191748396013000671489479 0.6076254086467316462005783
1.273392862786628665361377 0.0003825756803356496487007743 0.6237754384669644824867873
1.273909499633062658574545 -0.001415849373203336997867341 0.6246746509937339819629187
1.335615045773490106029158 -0.007261945071811892922497567 0.6428769908453020320848736
1.328492036618792226931873 0.0118253699521254015958327 0.6357539816906039309429843
1.335615045773490106029158 0.03091268497606270565514208 0.6428769908453020320848736
1.321369027464094125789984 -0.03575398169060396702523263 0.6286309725359059408233975
1.321369027464094125789984 0.03575398169060396702523263 0.6286309725359059408233975
1.30712300915469814555081 0.007261945071811892922497567 0.6143849542265098495619213
1.314246018309396024648095 -0.01182536995212541026945008 0.6215079633812079507038106
1.30712300915469814555081 -0.03091268497606270565514208 0.6143849542265098495619213
0.6255707996657282610186712 0.0003478561249753463809758491 0.6747770564592470154963166
0.6255462919265957211223395 -0.0003968716032406860026900131 0.6751494203233550095433202
0.6173620182878780671131835 -0.01597167567419445141640999 0.6836811894583085802423739
0.6092022523882931750449643 -0.03298619846583644710236172 0.691840594729154156894424
0.6092022523882931750449643 0.001042847117447534945403054 0.691840594729154156894424
0.6173868866557500334479869 -0.01741139439488268575439989 0.6669900150525093218689676
0.6092764968631696476109028 -0.03373020493657404028642333 0.6584827536566884020885482
0.609202613017032379438831 -0.03368118945830865518242803 0.6755217841874628925680213
0.6092026130170324904611334 0.03368118945830866906021583 0.6755217841874628925680213
0.6174359021340153352852553 0.0174113943948827135099755 0.6666421589275339787405983
0.6092519891240369966922685 0.03368118945830866906021583 0.6588551175207963961355517
0.6174604098731479862038896 -0.01666666666666665602702935 0.6662697950634259846935947
0.6093255123414350604704737 -0.03214271852361116205143432 0.6581348975317129479378764
0.6093255123414350604704737 0.001190614809722176240316949 0.6581348975317129479378764
1.340088180540067286372619 -0.00189418335191922576968282 0.6919823638919864183804975
1.332070544432053971206642 0.01540387776538718403451789 0.683964727783973103214521
1.340088180540067286372619 0.03270193888269359860920815 0.6919823638919864183804975
1.335615045773490106029158 -0.03575398169060396008633873 0.671369027464093992563221
1.329386663572107440955961 -0.01971870947457703832084164 0.680018058022747173829714
1.338298926633436636279839 -0.03396472778397306713227266 0.6895617155347157911648992
1.329386663572107440955961 0.01971870947457704525973554 0.680018058022747173829714
1.338298926633436636279839 0.03396472778397308101006047 0.6895617155347157911648992
1.335615045773490106029158 0.03575398169060396702523263 0.671369027464093992563221
1.335615045773490106029158 -0.007261945071811888585688877 0.6571230091546980123240473
1.328492036618792226931873 0.0118253699521254085347266 0.6642460183093961134659367
1.335615045773490106029158 0.03091268497606270565514208 0.6571230091546980123240473
1.322263654417409561858676 0.0006313944506397486814211484 0.6728950488680492947324296
1.323158281370724997927368 -0.002420648357270626348236586 0.6744210702720044858793358
0.625541013688937885817154 0.000389200349120201905418065 0.7248481866601822476425809
0.625562407106309170679026 -0.0003464135143778689714284813 0.7252159935919313404895092
0.6174462797867128482920407 -0.01588584112481467025546067 0.7337225336824536592317259
0.6093087590497454630877883 -0.03294170814060155133562446 0.7418612668412267741047117
0.6093087590497454630877883 0.001170025890972224702490934 0.7418612668412267741047117
0.6174248863721137903226577 -0.01740228053016475151526521 0.7170784728577360711554434
0.6092444483604564364753742 -0.03367974684771119636694792 0.7085505393498424675513547
0.6093087590525175789579748 -0.03372253368245356486276876 0.7255850129482582788753575
0.6093087590525176899802773 0.03372253368245355098498095 0.7255850129482582788753575
0.61738196909465170580944 0.01740228053016472722913655 0.7166880600840378479077231
0.6092658417778277213372462 0.03372253368245355098498095 0.708918346281591560398283
0.6173605756772806429921729 -0.01666666666666668031315801 0.7163202531522887550607948
0.6092015310829943519621565 -0.0322919288264832890500422 0.7081601265761442443036344
0.6092015310829943519621565 0.001041404506850048157506894 0.7081601265761442443036344
1.340694722727044707610844 -0.001166332727546605385615663 0.7418610554545910229506944
1.332555778181635508516933 0.01588911151496892604217948 0.7337221109091821569236913
1.340694722727044707610844 0.03294455575748445746997461 0.7418610554545910229506944
1.340088180540067286372619 -0.03396472778397306713227266 0.7240529083240401231336136
1.332191852869449189000761 -0.01768683869315527609766825 0.732580630445297975583685
1.340452105852253605888791 -0.03372211090918220133261229 0.7412296610039512678724805
1.332191852869449189000761 0.01768683869315527609766825 0.732580630445297975583685
1.340452105852253605888791 0.03372211090918220133261229 0.7412296610039512678724805
1.340088180540067286372619 0.03396472778397308101006047 0.7240529083240403451782186
1.340088180540067286372619 -0.00189418335191922576968282 0.7080176361080132707570556
1.332070544432053527117432 0.01540387776538718229979441 0.7160352722160268079676371
1.340088180540067286372619 0.03270193888269359860920815 0.7080176361080132707570556
1.32417421676143565179018 0.0003887775758488696002841689 0.7245629943372844383731035
1.324295525198831091628904 -0.0006313944506397425014687652 0.7250730803505287536125934