# geometry NO_DATA 472
#  x  y  z
0.7960651635895488187344426 0.02637218628899472977478169 0.4803070226994458069569305
0.7921303271790978151045692 -0.01666666666666666990481716 0.484251256734046120477899
0.7960651635895488187344426 -0.006961147044338608300129145 0.4803070226994458069569305
0.7796011541060897664934259 -0.008391679479349099454732475 0.4921303271790976041621946
0.7710068174435331656013659 -0.03385533999178010067243605 0.4960651635895487743255217
0.771006817443532943556761 0.01707198103308191217131196 0.4960651635895487743255217
0.790252476339144971362316 -0.04213032717909768326558506 0.4823734058940933877579482
0.7777233032661371447957777 -0.04213032717909767632669116 0.490252476339144926953395
0.7777233032661371447957777 0.04213032717909768326558506 0.490252476339144926953395
0.790252476339144971362316 0.04213032717909768326558506 0.4823734058940933877579482
0.8451493996538204100943403 -0.01090898452211815083945368 0.4577294414184539528278606
0.8475746998269102494560912 0.01757374846503541657161129 0.4581829823176383209570872
0.8475746998269102494560912 -0.0393917175092717286588595 0.4581829823176383209570872
0.8253585016583360189912355 -0.03588355236971775552579089 0.4635424353378490569532744
0.8373922446829515919830556 -0.04514939965382023384643517 0.4617883527680720634478462
0.8111171351647593619205168 -0.04073415271589752445491328 0.469904731386374341362
0.8111171351647593619205168 0.04073415271589752445491328 0.469904731386374341362
0.8253585016583360189912355 0.0358835523697177694035787 0.4635424353378490569532744
0.8373922446829515919830556 0.04514939965382024078532908 0.4617883527680720634478462
0.8331156566292048371025203 -0.007400819382564182043193757 0.4594835239882309463332888
0.823507213777679325517056 0.01181606632048690791458867 0.4616911474571923079679436
0.8092658472841025574240348 0.0009085257765637186908383449 0.4680534435057175923766692
0.8046329236420513009164779 0.02497601182579457790300381 0.4722081160852815706618912
0.8046329236420513009164779 -0.02315896027266714507497625 0.4722081160852815706618912
0.8991322204098769477198516 -0.01504027714558959713531117 0.4516809743506615681951644
0.8995661102049383739398536 0.01742527659762080349814539 0.4520602793161385690723364
0.8995661102049383739398536 -0.04750583088879999082987382 0.4520602793161386245834876
0.8701507795365001074472389 -0.04641898711504383046033695 0.4543518924599562192057078
0.8854608295557501174144477 -0.04913222040987706706882676 0.4538084705730782708599236
0.8539180026648949262124688 -0.04728676670516675228927994 0.4567968437371690559878346
0.8539180026648949262124688 0.04728676670516677310596165 0.4567968437371690004766833
0.8701507795364999964249364 0.04641898711504383046033695 0.4543518924599562192057078
0.8854608295557501174144477 0.04913222040987706706882676 0.4538084705730781598376211
0.8838221703906269377526428 -0.01395343337183342809215691 0.4522243962375395165409486
0.8689460101664383540054359 0.01579888707654373419808636 0.4531471230898946878085098
0.8527132332948333948152708 -0.01090898452211815257417715 0.4555920743671074135683341
0.8513566166474167973277076 0.01971111551638194195334997 0.4571142987919650235717484
0.8513566166474167973277076 -0.04152908456061825404059817 0.4571142987919650790828996
0.9475962294795357010457337 -0.01151782977412816461049161 0.4549781889667333656390724
0.9487981147397677172961039 0.01941173303874099351218341 0.4563507221527705048913504
0.9487981147397677172961039 -0.04244739258699731926371967 0.4563507221527705048913504
0.9167952685527893663675059 -0.04675381851651824738347329 0.4525323724065871133781513
0.9330407297379471609488633 -0.04759622947953582455804522 0.4546855853713475115185361
0.901330487146354775163104 -0.04915758903698242560098564 0.4521436819068936352472576
0.9013304871463549972077089 0.04915758903698241866209173 0.4521436819068935797361064
0.9167952685527894773898083 0.04675381851651824738347329 0.4525323724065870578670001
0.9330407297379472719711657 0.04759622947953583149693912 0.4546855853713475115185361
0.9313507682943777954420739 -0.01582425570364907885245742 0.4528249760019729674986877
0.9163071923694521281333891 0.01426289614620249168730481 0.4520442962232496530994297
0.9008424109630175369289873 -0.01504027714558959540058769 0.451655605723556174968536
0.9004212054815086130332702 0.01745064522472616203030427 0.452047595002585955725749
0.9004212054815086130332702 -0.04753119951590534936203269 0.4520475950025860112369003
0.9915391847679884129718175 -0.0006640014827167828878953793 0.4664621478239864282855365
0.9957695923839940954636063 0.02420851661860495829259321 0.4702330727999556314600227
0.9957695923839940954636063 -0.0255365195840385229841818 0.4702330727999556314600227
0.9683295722487074153050912 -0.03738741937519030750225468 0.4601237208140523948785017
0.9829203562189749998623256 -0.04153918476798840186958728 0.4660491707096283686695415
0.955893313198046490342108 -0.04584823460720189453043716 0.458467731644315867889361
0.955893313198046490342108 0.04584823460720191534711887 0.458467731644315867889361
0.9683295722487074153050912 0.03738741937519031444114859 0.4601237208140523948785017
0.9829203562189752219069305 0.04153918476798840880848118 0.4660491707096283686695415
0.9769484007977207173922807 -0.0125149012738685651291437 0.4605366979284105655167991
0.9665880244434588153268351 0.008205851434655075937740776 0.4583821730088038504113968
0.9541517653927980013861543 -0.01151782977412816461049161 0.4567261838390672679111049
0.9520758826963988674663142 0.0176637381664070738929162 0.4572247195889374560273666
0.9520758826963988674663142 -0.04069939771466339617500552 0.4572247195889374560273666
1.049194526748073563737762 0.04683513043869119707451887 0.4976406036906175778256056
1.048389053496147305111208 -0.0166666666666666594964763 0.4976120919674191789283668
1.049194526748073563737762 0.01350179710535786073433151 0.4976406036906175778256056
1.036505357257787585112396 -0.007100725810052763153912281 0.4936060830678402622240242
1.025427134271354123740139 0.015055720162813941015445 0.4896285858914596333946179
1.047874477062635367730081 -0.04838905349614726347784455 0.4970975155339073525695426
1.020644163843047236284178 -0.03882311263953337060472748 0.4857462222450749100843836
1.031207810395968760275309 -0.04838905349614726347784455 0.4892091429879437125549657
1.03599078082427564773127 0.03882311263953337754362138 0.4930915066343284358651999
1.020129587409535520947657 0.04043405914338610296354659 0.4852316458115630837255594
1.047874477062635367730081 0.04838905349614728429452626 0.4970975155339073525695426
1.00478297042830688745596 0.02310339099400264897821167 0.4778863614223095579447431
1.009565940856613774911921 -0.0006640014827167851647199415 0.4817687250686942812549773
1.00478297042830688745596 -0.02443139395943622060869416 0.4778863614223095579447431
1.052768080633497582709879 -0.04689892883261689848772846 0.4996670094661144201353409
1.051883526117577183356389 -0.01423157656705470452962459 0.4993340189322288402706818
1.052768080633497582709879 0.01843577569850748942847929 0.4996670094661144201353409
1.051550535583691381447125 -0.04933401893222885692402713 0.4988900479373863938725719
1.051550535583691381447125 0.04933401893222887080181494 0.4988900479373863938725719
1.050332990533885402228975 0.04778009587477278358180754 0.4981130864086583120986518
1.050665981067770982093634 0.01511274360921058962370367 0.4985570574035008140079128
1.05033299053388562427358 -0.01755460865635160433440021 0.4981130864086583120986518
0.7426097819167530866835136 0.00778811560070561716140336 0.5151783336839523830263943
0.7352195638335061733670273 -0.01666666666666666296592325 0.5215038397171057882317768
0.7426097819167530866835136 -0.02554521773262772091350747 0.5151783336839523830263943
0.7213743788911792798046463 -0.01102370321798711721994479 0.5352195638335062177759482
0.7149194120320992995587517 -0.02957660038482672407167406 0.5426097819167530200701322
0.7149194120320991885364492 0.007529193948852493101231431 0.5426097819167530200701322
0.7345442531426960020013439 -0.03521956383350625940931167 0.520828529026295727888396
0.7206990682003692194612654 -0.03521956383350626634820557 0.5345442531426960464102649
0.7206990682003692194612654 0.03521956383350628022599338 0.5345442531426960464102649
0.7345442531426960020013439 0.03521956383350628022599338 0.520828529026295727888396
0.7575158157196271169198099 -0.0477444627583897968081672 0.5033783221259682250092737
0.7533783221259682250092737 -0.0477444627583897968081672 0.5063292646762345139421768
0.7533783221259682250092737 0.04774446275838981762484892 0.5063292646762345139421768
0.7575158157196271169198099 0.04774446275838981762484892 0.5033783221259682250092737
0.7594027558081226647601625 -0.0394694755710722350316999 0.5011277686208051029836952
0.7563930308352688758333215 -0.008391679479349095985285523 0.5022555372416102059673904
0.7594027558081226647601625 0.02268611661237404653057581 0.5011277686208051029836952
0.7522555372416102059673904 -0.01076478156613399489449634 0.5052064797918764949002934
0.7511277686208051029836952 0.02031301452558914935608847 0.5070296537213377918718038
0.7511277686208051029836952 -0.0418425776578571356756342 0.5070296537213376808495013
1.091817093857746279184084 0.001070270982220009438681818 0.5170513749666969527396532
1.095908546928873184000963 0.02622069817329960444984849 0.5218283907200135240955774
1.095908546928873184000963 -0.02408015620885958080199529 0.5218283907200134130732749
1.080459425312012555764341 -0.04181709385774626253073905 0.5129599218955701589450769
1.080459425312012555764341 0.04181709385774626253073905 0.5129599218955701589450769
1.076367972240885650947462 -0.0166666666666666664353702 0.5081829061422535875891526
1.065010303695151705483113 -0.02241448270930845171333701 0.5040914530711267937945763
1.065010303695151705483113 0.0109188506240248811574034 0.5040914530711267937945763
1.125984167599688889893628 -0.02054979110752455997990218 0.5465339587072133298306653
1.118191145739024339178513 0.005851459640235565778931814 0.5430679174144267262747121
1.125984167599688889893628 0.03225271038799568806831886 0.5465339587072133298306653
1.114725104446237846644863 -0.04306791741442678872475724 0.5387357608649899765040914
1.114725104446237846644863 0.04306791741442679566365115 0.5387357608649898654817889
1.103466041292786581351493 0.02747152172998013758276059 0.5309375630227666231775174
1.106932082585573295929748 0.001070270982220016377575722 0.5352697195722033729481382
1.103466041292786581351493 -0.02533097976554011046546044 0.5309375630227666231775174
0.6958584453492165922128265 0.0161252111270718534452584 0.570266765777855177965705
0.6917168906984330067899691 -0.01666666666666666296592325 0.5789210509127524773020923
0.6958584453492165922128265 -0.01720812220626147942548201 0.570266765777855177965705
0.6835685198471012080645437 0.0003699249640029116667841458 0.5917168906984332510390345
0.6795617036465527727173708 -0.02468029906776357876307948 0.595858445349216614417287
0.6795617036465527727173708 0.02542014899576940448189255 0.595858445349216614417287
0.6898818753850735063792854 -0.04171689069843315111896231 0.5770860355993928658691061
0.6817335045337414856092551 -0.04171689069843315111896231 0.5898818753850735285837459
0.6817335045337415966315575 0.04171689069843315805785622 0.5898818753850735285837459
0.6898818753850735063792854 0.04171689069843316499675012 0.5770860355993928658691061
0.7060454193417433632617985 -0.04784682762794490590296803 0.5532239376174035161426445
0.7032239376174036493694075 -0.04784682762794490590296803 0.5570947644983894608827768
0.7032239376174036493694075 0.04784682762794492671964974 0.5570947644983894608827768
0.7060454193417433632617985 0.04784682762794492671964974 0.5532239376174035161426445
0.7067195496347071781428895 -0.04220386417926536709588348 0.5510765861860273950867395
0.7049746540963948149283169 -0.01102370321798711201577436 0.5521531723720549678091629
0.7067195496347071781428895 0.02015645774329113612544084 0.5510765861860273950867395
0.7021531723720551010359259 -0.008925012904694634707780665 0.5560239992530410235715976
0.7010765861860275283135024 0.02225514805658360822926412 0.5588182399479995066116089
0.7010765861860275283135024 -0.04010517386597288458371935 0.5588182399479995066116089
1.146842390597447192135405 -0.008576448422706483068478356 0.5572027185245329583551666
1.148421195298723773703387 0.0215992755080739520789912 0.559669022945236571686678
1.148421195298723773703387 -0.03875217235348692168539486 0.559669022945236571686678
1.143013591785507987452775 -0.04684239059744710331756323 0.5556239138232563767871852
1.143013591785507987452775 0.04684239059744711719535104 0.5556239138232564878094877
1.141434787084231405884793 -0.0166666666666666594964763 0.5531576094025528744779763
1.137605988272292423246768 0.002693850237682668489341831 0.5515788047012764039322974
1.137605988272292645291373 0.03602718357101600266112484 0.5515788047012764039322974
1.187209462249887659268666 -0.006217216605899811461555249 0.5934266788557873706366763
1.17846471284126286249716 0.01396947443900820907958238 0.5868533577115747634778131
1.187209462249887659268666 0.03415616548391622875335827 0.5934266788557873706366763
1.171891391697050144315995 -0.03685335771157468437442262 0.5808051213111007360367921
1.1718913916970503663606 0.03685335771157469131331652 0.5808051213111007360367921
1.156573321144212851407929 0.01161024262220152966640363 0.5681835637664141014369079
1.163146642288425569589094 -0.008576448422706488272648784 0.5742318001668881288779289
1.156573321144212851407929 -0.02876313946761450968114815 0.5681835637664141014369079
0.6575160786966833814659594 -0.04030443588504215718382184 0.6478205145817256260798445
0.6570272674757531294886803 -0.01133007338825750207056409 0.6456410291634513409775309
0.6575160786966833814659594 0.01764428910852715651214062 0.6478205145817256260798445
0.6692394287276755004967299 -0.04115998680263127651457467 0.6107211329123407583807648
0.6629006183306149768696969 -0.03680101596608260222653897 0.6252083141607331917555257
0.661148908371135157757692 -0.04564102916345131460973406 0.6374549742287154430187002
0.6629006183306150878919993 0.03680101596608260916543287 0.6252083141607331917555257
0.6611489083711352687799945 0.04564102916345132154862796 0.6374549742287154430187002
0.6692394287276757225413348 0.04115998680263129039236247 0.6107211329123407583807648
0.6714565982293538848324488 -0.02412339517196170415869183 0.6044200065986844450094395
0.6673583090127035433170022 0.0003699249640029116667841458 0.6088400131973688012010371
0.6714565982293538848324488 0.0248632450999675298775049 0.6044200065986844450094395
0.6610194986156430196899692 0.01230769583011799908622841 0.6233271944457611235534955
0.6587789774352329486006852 -0.007826653469297945378557735 0.6333943690954690897143564
1.199044922104766097703532 -0.01411588135266092676467498 0.602230470552236440973104
1.199522461052383137669608 0.01826237408543881363121031 0.6030283242616225614085579
1.199522461052383137669608 -0.04649413679076067063000721 0.6030283242616225614085579
1.198173864938553823122902 -0.04904492210476641550487287 0.6017529316046197340739354
1.198173864938553823122902 0.04904492210476640856597896 0.6017529316046197340739354
1.197696325990937005201431 -0.01666666666666666990481716 0.600955077895233724660784
1.196825268824724730620801 0.0130143965437746131352803 0.600477538947616906739313
1.196825268824724730620801 0.04634772987710795294491462 0.600477538947616906739313
1.236077761467303748332824 -0.006202228993025577299946782 0.642279990460329575086007
1.229618895043157467128481 0.01169108526096684572137541 0.6345599809206590169452511
1.236077761467303748332824 0.02958439951495927394686802 0.642279990460329575086007
1.221898885503486908987725 -0.03455998092065909466086282 0.626888716450665683943555
1.22189888550348713103233 0.03455998092065909466086282 0.626888716450665683943555
1.207720009539670513731835 0.003777432901331499726094165 0.6114974424410020148457079
1.215440019079340849827986 -0.01411588135266092676467498 0.6191687069109952368251015
1.20772000953967029168723 -0.03200919560665335672489107 0.6114974424410020148457079
0.6517581633345819192015824 -0.04787535015146870964741765 0.6996335134860505178266976
0.6514288114382149608161399 -0.01527498984603405801641074 0.6992670269721010800623162
0.6517581633345819192015824 0.01732537045940059014514922 0.6996335134860506288490001
0.6563038621609572631498963 -0.04750081161250708366994289 0.6536355655217529481149086
0.6540020520357020528123826 -0.0467678385846084024302094 0.6699357456744701178052992
0.6534482962522719651232705 -0.04926702697210130765803626 0.6853528181473903524434377
0.6540020520357021638346851 0.0467678385846084093691033 0.6699357456744701178052992
0.653448296252272076145573 0.04926702697210131459693017 0.6853528181473903524434377
0.6563038621609572631498963 0.04750081161250709060883679 0.6536355655217529481149086
0.6565861874721554691802794 -0.04216421833409792624403067 0.651249594193746395021094
0.6551674850266973049173203 -0.01133007338825750207056409 0.6524991883874929898823325
0.6565861874721554691802794 0.0195040715575829221029025 0.651249594193746395021094
0.6528656749014420945798065 0.01593369363876798519563671 0.6687993685402102705950256
0.6519825672216450485052519 -0.01416747827917375426864943 0.6838499544991810674687827
1.248086896698183512199876 -0.01011438059820693631529753 0.6551892463360458052079593
1.249043448349091534055333 0.02130584943331041009040305 0.6575088377193676336673889
1.249043448349091534055333 -0.04153461062972428619044507 0.6575088377193677446896913
1.246555657646241765945661 -0.04808689669818400763690036 0.6542326946851378943748045
1.246555657646241765945661 0.04808689669818402845358207 0.6542326946851377833525021
1.245599105995333744090203 -0.01666666666666666296592325 0.6519131033018159548930726
1.244067866943391997835988 0.009777981959150864460506014 0.6509565516509079330376153
1.244067866943391997835988 0.04311131529248420080069337 0.6509565516509079330376153
1.272063835558906230716048 -0.02344094801624936955097844 0.6955047835751556606354029
1.267774742416719391258084 0.0009019524673953109583646182 0.6910095671503113656797268
1.272063835558906230716048 0.02524485295103999493715463 0.6955047835751555496131004
1.263279525991875207324711 -0.04100956715031134347526631 0.6821142599427189034955177
1.263279525991874985280106 0.04100956715031135041416022 0.6821142599427189034955177
1.254495216424843739844164 0.01422851988543774072459858 0.66872373631028203533333
1.258990432849688367866747 -0.01011438059820694151946796 0.6776190435178746085398416
1.254495216424843739844164 -0.03445728108185161508991712 0.6687237363102821463556324
0.656045882624536114136049 -0.04281119252286365306492399 0.748857075147399742220955
0.6547373285911680662607637 -0.01176370889473047492979063 0.7477141502947997064865149
0.656045882624536114136049 0.01928377473340269973589578 0.7488570751473999642655599
0.6518333532866895652091443 -0.04928050461378816193835917 0.7011375148763729914236364
0.6522804397289732047937605 -0.04699465490858800720275212 0.7166612566904397851885733
0.6543721709218354165571441 -0.04771415029479984110105661 0.732968175664000409774701
0.6522804397289732047937605 0.04699465490858801414164603 0.7166612566904397851885733
0.6543721709218354165571441 0.04771415029479984803995052 0.7329681756640005207970034
0.6518333532866895652091443 0.04928050461378817581614697 0.7011375148763733244905438
0.6517514245137384643058454 -0.04788882779315556392774056 0.700359747693105605392816
0.6514153337965280510246657 -0.01527498984603405801641074 0.7007194953862116992837628
0.6517514245137384643058454 0.01733884810108744442547213 0.7003597476931059384597233
0.6518624202388118016315843 0.01438081696146651690393359 0.7162432372002782710040947
0.6526455973983058544973801 -0.01594717128045482906761876 0.7314072313212390819003872
1.290694134324943620484305 0.01328815337077447755742554 0.7225940190458306489063034
1.292813182190552634409642 -0.009050057639556605831865355 0.7337631245509961264161802
1.294244624544363508888978 0.01191294234717837387249606 0.7466214867041076619358364
1.293557019032565147398373 -0.0180418776902627614466823 0.7483107433520538309679182
1.293557019032565591487582 0.04186776238461949184443966 0.7483107433520538309679182
1.290947970399183741818661 -0.0390048776769977428857672 0.7318979127596275668921066
1.28475486994749443780961 -0.04238339097288995604984052 0.7169205027409071284694164
1.292379412752994838342602 -0.04662148670410779655037814 0.7447562749127392134340653
1.292379412752995060387207 0.04662148670410780348927204 0.7447562749127392134340653
1.286620081738863108355986 0.039004877676997756763555 0.7187857145322755769711875
1.286873917813103451734946 0.04662148670410780348927204 0.7280896082460726059792933
1.284501033873254094430649 -0.01666666666666665602702935 0.7076166090271099884390082
1.28042698128717358230233 -0.006714656559714730563181995 0.7038083045135550275261949
1.28042698128717358230233 0.02661867677361860751172884 0.7038083045135549165038924
0.6707203059517415910661953 -0.02507611849833897565975604 0.7957964244500805861548542
0.6666655163007498829941255 -0.0001499362648444517442936075 0.7915928489001613499453924
0.6707203059517415910661953 0.02477624596865005829338102 0.7957964244500805861548542
0.6581526130761073956065843 -0.04612917280630908500871357 0.7557011341901394008147008
0.6599047097400587702509256 -0.03772202170647026564509474 0.7681642253068866610377086
0.6662276613441244776936401 -0.04159284890016118341193874 0.782895478376707920631361
0.6599047097400587702509256 0.03772202170647027952288255 0.768164225306886772060011
0.6662276613441244776936401 0.04159284890016118341193874 0.782895478376707920631361
0.6581526130761075066288868 0.04612917280630909888650137 0.7557011341901394008147008
0.6568383713687815372850309 -0.04122621503437290391147485 0.7519354135968453478611195
0.656322306079658801536425 -0.0117637088947304697256202 0.753870827193690917766844
0.6568383713687815372850309 0.01769879724491195058244664 0.751935413596845458883422
0.6580744027436101761807663 0.008259515566827862684262662 0.7663339183104380669675493
0.660342564696684175551411 -0.01279583947297574519907926 0.7768615958303399793294375
1.296162070065460802936741 0.013691630690829412544951 0.76752956062536847881006
1.295849758050852340574011 -0.01431625472004628349398381 0.7815335033308064005552751
1.293879197596381924739717 0.01037513381110510835014793 0.7970249640241628963366338
1.292220949156519971268153 -0.01998316354639097236489675 0.7985124820120814703727774
1.292220949156519971268153 0.04073343116860118906519261 0.7985124820120814703727774
1.294330237114759807326436 -0.04467455207754235380068764 0.7800139823947136452630957
1.2934408929429341839068 -0.04764958805337961289527726 0.7648348337159656118444673
1.292359676660289169447537 -0.04702496402416274368096794 0.7955054430880701410444544
1.292359676660289169447537 0.04702496402416274368096794 0.7955054430880702520667569
1.29496041387902693919898 0.04467455207754236767847544 0.7663543546520582561143442
1.29312858092832572154407 0.04702496402416274368096794 0.7788387764214035335896824
1.295272725893635179517105 -0.01666666666666666296592325 0.7523504119466203343691291
1.294071069707201093734739 0.009562530400557977053321856 0.7511752059733101116734133
1.294071069707201315779344 0.04289586373389131512823269 0.7511752059733101116734133
0.6913399447345361936712038 0.009403842526630651343921841 0.8216953098621124773615065
0.6956699723672681301422926 0.03407712059450016678363582 0.8304005368260292119231281
0.6956699723672681301422926 -0.01526943554123886756523909 0.8304005368260292119231281
0.6872616709015125779913546 -0.04133994473453618534453113 0.8173652822293805408904177
0.6872616709015125779913546 0.04133994473453618534453113 0.8173652822293805408904177
0.6829316432687806415202658 -0.01666666666666666990481716 0.8086600552654639173510986
0.6788533694357570258404166 -0.008809991530308279583660891 0.8043300276327318698577074
0.6788533694357570258404166 0.02452334180302505675652647 0.8043300276327318698577074
0.7064382388737266982303709 -0.04253165581176576726107896 0.8489698946854924432869893
0.704764277408624573162399 -0.0112585331074474825907572 0.8479397893709849087784391
0.7064382388737266982303709 0.02001458959687081248790541 0.8489698946854923322646869
0.7037341720941171496761513 -0.04793978937098496151403282 0.8453384826154743958426252
0.7037341720941171496761513 0.04793978937098495457513891 0.8453384826154743958426252
0.7010301053145076011219317 0.0406769652309489429531375 0.8417070705454563483982611
0.7020602106290150246081794 0.009403842526630646139751413 0.844308377300966861334075
0.7010301053145076011219317 -0.02186928017768764026529382 0.8417070705454563483982611
1.289311032214728536260395 0.006421816319036996803526485 0.8171107841043085961985071
1.286971878346641950940921 -0.01110012405520998182706371 0.8258717542914318920921346
1.278430782992622027904872 -0.005982066652829867714480372 0.8397551496523703029595254
1.272228841506688690188298 -0.02907054963853354656588834 0.8448775748261851958886837
1.272228841506688690188298 0.0171064163328738180758215 0.8448775748261851958886837
1.285005438214658957107872 -0.03418860704091365720902473 0.8239053141594490092813885
1.286982096960693100484718 -0.04443345738854330428946326 0.8123610726665972947557748
1.276464342860639256116428 -0.03975514965237035569511903 0.8377887095203873091264768
1.276464342860639034071824 0.03975514965237034181733122 0.8377887095203873091264768
1.288948537092676094317767 0.03418860704091362945344912 0.8143275127985801775665209
1.284642943092606515165244 0.03975514965237034875622513 0.8211220428537207016717048
1.291287690960762679637241 -0.01666666666666668031315801 0.8055665426114568816728934
1.290925195838710237694613 0.004808591199648400323074515 0.8027832713057284630409072
1.290925195838710237694613 0.03814192453298174273479404 0.8027832713057284630409072
0.7351902821671473242659545 0.01128587452533814233790466 0.878785988428854913934174
0.742595141083573606621826 0.02980949002581885845519771 0.8853574001084310030051938
0.742595141083573606621826 -0.007237740975142572044664924 0.8853574001084310030051938
0.728632541196516658743576 -0.03519028216714737561376936 0.871381129512428520556
0.728632541196516658743576 0.03519028216714738949155716 0.8713811295124287426006049
0.721227682280090265365402 -0.0166666666666666664353702 0.8648097178328525425072826
0.7146699413094595998430236 -0.02606825094030009240531065 0.857404858916426260151411
0.7146699413094595998430236 0.007265082393033244802238446 0.857404858916426260151411
0.7582593644875071925426369 -0.04071578404472507572986473 0.8989751485322321489235264
0.7556669594454051841481146 -0.009432153646927282988898789 0.8979502970644643866648948
0.7582593644875071925426369 0.0218514767508705062826202 0.8989751485322321489235264
0.7546421079776373108671805 -0.04795029706446446438050657 0.8962847524615679128956458
0.7546421079776373108671805 0.04795029706446446438050657 0.8962847524615679128956458
0.7510248514677677622586316 0.04256950492313593681359407 0.8935943563909036768677652
0.7520497029355355245172632 0.0112858745253381388684577 0.8952599009938000396147117
0.7510248514677677622586316 -0.01999775587245965213778476 0.8935943563909036768677652
1.199986027453091796957096 0.04990882287161803321229314 0.8999227954185263778086323
1.199972054906183194233904 -0.01666666666666666990481716 0.8999404388889005179663627
1.199986027453091796957096 0.01657548953828470034155274 0.8999227954185263778086323
1.199886699285164226580491 0.01649595542462874153688546 0.899972054906183149824983
1.199815316211053861650271 -0.01680943281488779528221045 0.8999860274530915305035705
1.199815316211053861650271 0.04980134366414527835598136 0.8999860274530915305035705
1.199958082359274813555317 -0.04997205490618320672391306 0.8999264663419921372877752
1.199872726738255845901904 -0.04997205490618320672391306 0.8999580823592747691463956
1.199872726738255845901904 0.04997205490618320672391306 0.8999580823592747691463956
1.199958082359275035599921 0.04997205490618320672391306 0.8999264663419921372877752
1.245750936553083443314449 0.01941406170628710153858165 0.8736631251532035458140513
1.241501873106166886628898 -0.0166666666666666525575824 0.8804579674062269489809296
1.245750936553083443314449 -0.01391927162704623133215875 0.8736631251532036568363537
1.224861295965054219792023 -0.01661448761555898989694668 0.8914757835806128571931595
1.212469782270857887596094 0.008168539772833509696181586 0.8956987575019758063277209
1.239311838909173291156662 -0.04150187310616683389330461 0.8782679332092332424863912
1.212443692745304169022802 -0.04144969405505917470211585 0.8956932310102470040646949
1.222645172242506461657285 -0.04150187310616682695441071 0.8892802228918903484355951
1.222671261768060402275182 0.04144969405505918164100976 0.8892857493836192617209235
1.210253658548310351505961 0.0499478209488923366454749 0.8935031968132532975701565
1.239311838909173069112057 0.04150187310616684777109242 0.8782679332092332424863912
1.200026089525553896208976 0.04988458891432717701164279 0.8999106784398810399139279
1.200052179051107836826873 0.01660343463210149639319724 0.8999162049316097311546514
1.200026089525553896208976 -0.01667771965012417034746051 0.8999106784398809288916254
1.261411366587577242981411 -0.04555205784148577685677139 0.8560690665806589549902128
1.256069066580658866172371 -0.04555205784148576297898359 0.8616918275473857136148581
1.256069066580658866172371 0.04555205784148576297898359 0.8616918275473854915702532
1.261411366587577242981411 0.04555205784148576297898359 0.8560690665806587329456079
1.262908571093094067805396 -0.0348674578276489538497529 0.8522239710792571809605533
1.259790242165432783139067 -0.005982066652829862510309944 0.8544479421585142731032647
1.262908571093094067805396 0.02290332452198923576802692 0.8522239710792570699382509