# geometry NO_DATA 464
#  x  y  z
0.7838609679112590322702658 0.01545501370818151178065936 0.532199872276164720474867
0.7919304839556295938507446 0.03264931495277399731147483 0.5401911964192185333644147
0.7919304839556295938507446 -0.001739287536410982423773497 0.5401911964192185333644147
0.7888292543494401787285142 -0.003346623835048296094485387 0.5421758781844884245160188
0.7811508098979873526701567 0.01433846586726193750305214 0.5343517563689768046231165
0.7888292543494401787285142 0.03202355556957216242697228 0.5421758781844884245160188
0.7832008597626289869708671 -0.01743429805014884426128674 0.5326732251847030585878429
0.7916541914987405004211496 -0.0338609679112591571703561 0.5405207304415720059864725
0.7824278309558441169002663 -0.01792508650786658191966794 0.5334462539914877066138388
0.7897170622922533578247339 -0.0343517563689769017676312 0.5418995857275993310864237
0.7824278309558443389448712 0.01792508650786658191966794 0.5334462539914877066138388
0.7897170622922533578247339 0.0343517563689769017676312 0.5418995857275992200641213
0.7832008597626289869708671 0.01743429805014884426128674 0.5326732251847030585878429
0.7916541914987403893988471 0.0338609679112591571703561 0.5405207304415720059864725
0.7754076361751474077976809 -0.0002399968055563514934217656 0.5243523670192958840985398
0.7750238204834063449055748 0.000527634577925824299615698 0.5244961859054806385671554
0.7742507916766216968795788 0.001018423035643563259039501 0.5252692147122652865931514
0.7738615785615781117456891 -0.0002399968055563511952661682 0.5258984246328652911728341
0.8352631222366043717286743 0.01280708886012419875366497 0.5294737555267907680445205
0.8426315611183021747621069 0.03140354443006210249933474 0.5368421944084884600556506
0.8426315611183021747621069 -0.005789366709813695451025684 0.5368421944084884600556506
0.8333506442625586707606544 -0.01922817791821128385887363 0.5314208553592874029192217
0.8419998387700287079127293 -0.03526312223660455630325217 0.5381402609634862166387848
0.824052416477589866339315 -0.03396505568160672339228512 0.5401132566650137523112107
0.824052416477589866339315 0.03396505568160672339228512 0.5401132566650138633335132
0.8333506442625586707606544 0.01922817791821128385887363 0.5314208553592874029192217
0.8419998387700287079127293 0.03526312223660456324214607 0.5381402609634862166387848
0.826613927729134223554297 -0.0006317223482733893289223226 0.522754349922591843302655
0.8253331721033619894356548 0.001929788903271232322969575 0.523403383200090721594222
0.8160349443183930739920129 0.01545501370818151004593588 0.5320957845058171820085136
0.8080174721591966147116182 0.03275340272312156353340384 0.5401391525340446531089356
0.8080174721591966147116182 -0.00184337530675854907938338 0.5401391525340446531089356
0.890165098397678322683646 0.003003136537976784647963058 0.519669803204643399041629
0.8950825491988392279552045 0.02650156826898839718120726 0.5245872540058043043131875
0.8950825491988392279552045 -0.02049529519303482788528115 0.5245872540058043043131875
0.8838545325105988670344459 -0.02542822063428284290464987 0.5270227674462538702826464
0.8931527602955677824780878 -0.04016509839767827549916746 0.5294892301668779888146332
0.8721053166450931648512324 -0.03526312223660456324214607 0.5368421944084884600556506
0.8721053166450931648512324 0.03526312223660456324214607 0.5368421944084884600556506
0.8838545325105988670344459 0.02542822063428284290464987 0.5270227674462538702826464
0.8931527602955677824780878 0.04016509839767827549916746 0.5294892301668779888146332
0.8808668706127092962177016 -0.001929788903271232539810009 0.5172033404840192805096422
0.8764860936289011750233158 0.006831765064344943495788787 0.5196543285645561782715163
0.8647368777633954728401022 0.01280708886012420222311192 0.5294737555267907680445205
0.8573684388816977808289721 0.03140354443006210249933474 0.5368421944084884600556506
0.8573684388816975587843672 -0.005789366709813695451025684 0.5368421944084884600556506
0.9354913180089037272324504 0.01235069731552527680373821 0.5290173639821916795611401
0.9427456590044519524340672 0.03117534865776264152437136 0.5362717049777396827181519
0.9427456590044518414117647 -0.006473954026712074906468875 0.5362717049777396827181519
0.9241646780746011202722912 -0.0256564164065823004101663 0.5220066933990304969270824
0.9359138939401070445001096 -0.03549131800890402421710945 0.5315979245889655979695476
0.9147523524034826269968335 -0.04016509839767827549916746 0.5245872540058043043131875
0.9147523524034826269968335 0.04016509839767827549916746 0.5245872540058043043131875
0.9241646780746011202722912 0.0256564164065823004101663 0.5220066933990303859047799
0.9359138939401070445001096 0.03549131800890402421710945 0.5315979245889654869472452
0.9237421021433978030046319 -0.006831765064344946097874001 0.5194261327922565785186748
0.9192472272734401039784302 0.002157984675570688744283832 0.5170892425978694806332214
0.909834901602321721725275 0.003003136537976784647963058 0.519669803204643399041629
0.9049174508011608164537165 0.02650156826898839718120726 0.5245872540058043043131875
0.9049174508011608164537165 -0.02049529519303482788528115 0.5245872540058043043131875
0.9840276621206563989474603 0.01527800909202026852229395 0.5319446757586867580158696
0.9920138310603281439625789 0.03263900454601013911837271 0.5399308446983585030309882
0.9920138310603281439625789 -0.002082986361969601640103944 0.5399308446983586140532907
0.9804435207136387164794655 -0.0195189801295605619424478 0.5297491919263156434638518
0.9898558463847575428218306 -0.03402766212065653356200201 0.5384671888101111303370772
0.9717630229866438540398121 -0.03549131800890402421710945 0.5362717049777399047627569
0.9717630229866438540398121 0.03549131800890402421710945 0.5362717049777397937404544
0.980443520713638827501768 0.01951898012956055847300085 0.5297491919263155324415493
0.9898558463847575428218306 0.03402766212065654050089591 0.5384671888101110193147747
0.9746153364495375726050952 -0.002157984675570691780049914 0.5232266788748913821649467
0.9731891797180907133224537 0.0006943287873231968965540006 0.5224948509307676403068399
0.9645086819910959619051027 0.01235069731552527680373821 0.5290173639821917905834425
0.9572543409955478477257884 0.03117534865776264152437136 0.5362717049777397937404544
0.9572543409955478477257884 -0.006473954026712075773830612 0.5362717049777397937404544
1.026807242903081895946116 0.002919103752368425955948661 0.5261118608492862946945934
1.028092949265817290793734 -0.000347691026897826646613332 0.527745258238919490167973
1.022504874171403344007558 -0.01082845916192992641313708 0.5362524370857016942082396
1.015631092714254002373764 -0.03041422958096502010549855 0.5431262185428507027751266
1.015631092714254224418369 0.008757311257105167279224389 0.5431262185428507027751266
1.026286232995971214876363 -0.003961123566589451125419252 0.5259385419690736362952066
1.017779054149189121858399 -0.02028009920635829438362308 0.533751392028532611888636
1.012711988961885634097371 -0.03625243708570176359717863 0.5424318897555276963728943
1.017779054149189121858399 0.02028009920635829438362308 0.533751392028532611888636
1.012711988961885856141976 0.03625243708570176359717863 0.5424318897555275853505918
1.026286232995971214876363 0.00396112356658945632958968 0.5259385419690736362952066
1.025000526633236042073349 -0.0006943287873231998238998663 0.524305144579440440821827
1.024479516726125583048201 0.0003476910268978301702703926 0.5241318256992277824224402
1.015972337879343267985632 0.01527800909202027025701742 0.5319446757586867580158696
1.007986168939671633992816 0.03263900454601013911837271 0.5399308446983585030309882
1.007986168939671633992816 -0.002082986361969601206423075 0.5399308446983586140532907
0.7343095687960312645259364 0.01435912683053248463382889 0.581203327952568127301447
0.7421547843980156322629682 0.03200202895989710805135786 0.5888710090991834400497851
0.7421547843980156322629682 -0.003283775298832146589955716 0.5888710090991834400497851
0.7401678481769351503061216 -0.001759369532605533888516836 0.5919272177095407094782331
0.7321930975241563999134087 0.0154283992198093466985398 0.5838544354190814411609267
0.7401678481769351503061216 0.03261616797222421926250036 0.5919272177095407094782331
0.7334301655609585246509141 -0.01787413782517820529105457 0.5824539300982604084211403
0.7418791167421986409991064 -0.03430956879603128811817569 0.5897491113614334867776279
0.7326814967867354422281778 -0.01741900444822845617220963 0.5832025988724834908438766
0.7405113142445469698316174 -0.03385443541908153552988381 0.5916515500537237182143713
0.7326814967867353312058754 0.01741900444822847004999744 0.583202598872483601866179
0.7405113142445467477870125 0.03385443541908154940767162 0.5916515500537237182143713
0.7334301655609583026063092 0.01787413782517822263828933 0.5824539300982605194434427
0.7418791167421986409991064 0.03430956879603130893485741 0.5897491113614334867776279
0.7258606176147910371554417 -0.0002312356958135759375187052 0.5739081466893951599672619
0.7252568820355352885442812 0.0009762354626979712936274414 0.5742806465728373943591123
0.7245082132613123171438474 0.0005211020857482200063781619 0.5750293153470603657595461
0.7243632800663448723099691 -0.0002312356958135759104136508 0.575405484237841213790432
0.7886844783109456802350223 -0.0345453919706790874011304 0.5731819120439813897149861
0.7731819120439813453060651 -0.0345453919706790874011304 0.5886948087925809591780535
0.7731819120439813453060651 0.0345453919706790874011304 0.5886948087925809591780535
0.7886844783109456802350223 0.0345453919706790874011304 0.5731819120439813897149861
0.7887324365485890442784012 -0.003540259436750487365835882 0.5577273040146605298517102
0.7809571742962850837699307 0.01433846586726193750305214 0.5654546080293210152944994
0.7887324365485890442784012 0.03221719117127435499936539 0.5577273040146605298517102
0.7654546080293208598632759 0.01435912683053247942965847 0.5809675047779205847575668
0.7577273040146603744204867 0.03223785213454490039541867 0.5887530975118595577555425
0.7577273040146603744204867 -0.003519598473479939801378258 0.5887530975118596687778449
1.036252437085701583185937 0.0108284591619298674325389 0.5774951258285965227656789
1.043126218542850702775127 0.03041422958096496459434732 0.5843689072857457533771708
1.043126218542850702775127 -0.008757311257105217586205193 0.5843689072857457533771708
1.029378655628552685641353 -0.03625243708570176359717863 0.5706213443714474031764894
1.029378655628552685641353 0.03625243708570175665828472 0.5706213443714474031764894
1.022504874171403344007558 -0.01666666666666667337426411 0.5637475629142982835872999
1.015631092714254002373764 -0.02457602207622817253040992 0.5568737814571491639981105
1.015631092714254224418369 0.008757311257105162075053961 0.5568737814571491639981105
1.083951463911526635897076 0.01624318801700680436894686 0.5825034634303101199748198
1.091975731955763251335156 0.03352798526186679534122348 0.5909341227279101271818718
1.091975731955763251335156 -0.001041609227853176194988905 0.5909341227279101271818718
1.081078847915525997791519 -0.02020390099722838700424532 0.5804607173373328432575136
1.090871733125043707701707 -0.03395146391152664699930597 0.5900418632220205683580616
1.072436449293096227819433 -0.03625243708570172890270911 0.5861840122073945780201143
1.072436449293096227819433 0.03625243708570173584160301 0.5861840122073944669978118
1.081078847915525997791519 0.02020390099722838006535142 0.5804607173373328432575136
1.090871733125043707701707 0.03395146391152665393819987 0.5900418632220204573357591
1.074158578702009148031493 -0.002919103752368405572947818 0.5729223175456223948742718
1.072389961536728275603991 0.0006181305781933123938420849 0.5717718309585348990253806
1.063747562914298061542695 0.0108284591619298674325389 0.5774951258285965227656789
1.05687378145714916399811 0.03041422958096493683877171 0.5843689072857457533771708
1.05687378145714916399811 -0.008757311257105191565353053 0.5843689072857457533771708
1.10214550661476318182963 -0.04646088309475994437836022 0.5986063897095231789435843
1.103163168743096722579367 -0.0159147703423803271727266 0.5972127794190462690693266
1.10214550661476318182963 0.01463134240999944442329639 0.5986063897095231789435843
1.101769558452619923727411 -0.04721277941904643282722276 0.5983946503846933051562473
1.101769558452619923727411 0.04721277941904629404934468 0.5983946503846931941339449
1.101393610290476665625192 0.04678930076938643545236829 0.5981829110598632093243054
1.102787220580953686521752 0.01624318801700665865217488 0.5970010400942165063042921
1.101393610290476665625192 -0.01430292473537296028818222 0.5981829110598634313689104
0.7364615149287285778001433 -0.006246182085525489764699092 0.6427076970142541201269637
0.7291692119429830087895539 0.01250254527631635900752904 0.6354153940285085511163743
0.7364615149287287998447482 0.0312512726381582173207363 0.6427076970142541201269637
0.7400702125527033325980142 -0.0339848802603564259516844 0.6240226796094653360924553
0.7313149825952109939208867 -0.01940027428886495833304515 0.633397043290386152492033
0.7378920286968806419025668 -0.03541539402850851780968355 0.6420561500872310478627014
0.7313149825952109939208867 0.01940027428886494098581039 0.633397043290386152492033
0.7378920286968808639471717 0.03541539402850851780968355 0.6420561500872310478627014
0.7400702125527033325980142 0.0339848802603564259516844 0.6240226796094653360924553
0.7401026257562977050952213 -0.001889814373880426695562207 0.6080075598698218009019456
0.7320626526828815094916081 0.01542839921980933282075199 0.6160151197396435129860492
0.7401026257562977050952213 0.03274661281349910274540704 0.6080075598698218009019456
0.7233074227253892818367831 0.002082060695175178433730112 0.6253894834205644404079294
0.7225921658413132497855713 -0.000651546927023107500832888 0.6267562872316636557457059
1.134410212957095431818288 0.01451290741914265311485188 0.631179574085809269590186
1.142205106478547671500223 0.03225645370957129498545868 0.6389744676072616202944232
1.142205106478547671500223 -0.003230638871285989189435783 0.6389744676072616202944232
1.12591438797402432214767 -0.0344102129570953152448709 0.6233846805643570299082512
1.12591438797402432214767 0.034410212957095308305977 0.6233846805643570299082512
1.118119494452571860421131 -0.01666666666666666990481716 0.615589787042904679204014
1.109623669469500750750512 -0.03150455738528486204774737 0.6077948935214523284997767
1.109623669469500750750512 0.00182877594804846605250348 0.6077948935214523284997767
1.175939817834536604834739 0.001251172118215913668659578 0.6253113542836793437018628
1.176408288005930113939712 -0.0003142317754286600784210948 0.6260940562305015166799649
1.169169010903098326892291 -0.01416432243023478705634677 0.6345845054515493188773689
1.161461263628873030739896 -0.03208216121511736629301481 0.6422922527257746150297635
1.161461263628873030739896 0.003753516354647790879278668 0.6422922527257746150297635
1.175244262134941042319269 -0.002642283517406552543344 0.6249300303595127781264296
1.166753812913893684211075 -0.01899471840864455640662811 0.6323435999567983412106287
1.160210091510657237634518 -0.03458450545154924393731477 0.6412153731020125979611635
1.166753812913893684211075 0.01899471840864455640662811 0.6323435999567983412106287
1.160210091510657237634518 0.03458450545154924393731477 0.6412153731020125979611635
1.175244262134941042319269 0.002642283517406555579110083 0.6249300303595126671041271
1.174775791963547533214296 -0.001076879623761978471002676 0.6241473284126903831037225
1.174080236263952414788037 0.0003142317754286632768175036 0.6237660044885237065059869
1.165589787042904612590632 0.01451290741914266005374579 0.6311795740858093806124884
1.157794893521452372908698 0.03225645370957129498545868 0.6389744676072616202944232
1.157794893521452372908698 -0.003230638871285985286307962 0.6389744676072616202944232
0.7217164288128957716494938 -0.0239402854245248097875276 0.6956567142374208145838566
0.7173731430503167416645738 0.0007064763836502133131922676 0.6913134284748415625543316
0.7217164288128957716494938 0.02535323819182515314718529 0.6956567142374208145838566
0.7364615149287285778001433 -0.03541539402850851780968355 0.6718769089572371733254386
0.726220194719816358741582 -0.02672882250335012477293617 0.6842002898613246397729881
0.7276144632592288497008326 -0.04131342847484159586102237 0.6935746535422455671948683
0.726220194719816358741582 0.02672882250335021150910997 0.6842002898613246397729881
0.7276144632592288497008326 0.04131342847484168606664312 0.6935746535422455671948683
0.7364615149287285778001433 0.03541539402850851780968355 0.6718769089572371733254386
0.7364615149287285778001433 -0.006246182085525489764699092 0.6572923029857455912150499
0.7291692119429828977672514 0.012502545276316362476976 0.6645846059714913822702442
0.7364615149287285778001433 0.0312512726381582173207363 0.6572923029857455912150499
0.7189278917340705676863877 0.007980095141508349726455762 0.6769079868755789597400963
0.7159788745109040286607183 -0.00208206069517510600902499 0.6819390647939207461547539
1.184584505451549141241685 0.01437953325282607421053971 0.680938594508196937127309
1.192292252725774659438684 0.03229737203770867426388946 0.6887539471937179635929738
1.192292252725774659438684 -0.003538305532056534950108295 0.6887539471937179635929738
1.17687675817732384508929 -0.03458450545154927169289039 0.6732308472339716409749144
1.17687675817732384508929 0.03458450545154927169289039 0.6732308472339716409749144
1.169169010903098326892291 -0.0166666666666666664353702 0.6654154945484506145092496
1.161461263628873030739896 -0.02957981697868551640429047 0.6577077472742252073345526
1.161461263628873030739896 0.003753516354647813864364725 0.6577077472742252073345526
1.22541276569982926503144 0.0004505929170329659870682104 0.6750378272172034010978336
1.22554432753768915986825 -0.0001874692413131008529754429 0.6753568582963762612081382
1.217758170448599575053095 -0.0153848449368662616026926 0.6837839262503662141057248
1.209840451521650095401128 -0.03250210452056590676450654 0.6918919631251829738260994
1.209840451521650095401128 0.001732414646833393100100462 0.691891963125182862803797
1.224913258971788820872462 -0.001449606373113875718017241 0.6747257897304761442569543
1.21648619101779909001948 -0.0179288037984674519798034 0.6820092909775455902732233
1.209199540656749727318697 -0.03378392625036632374024848 0.6907483964182628000116893
1.21648619101779909001948 0.01792880379846743463256864 0.6820092909775454792509208
1.209199540656749949363302 0.03378392625036631680135457 0.6907483964182625779670843
1.224913258971788820872462 0.001449606373113847095079887 0.6747257897304759222123494
1.224781697133928703991046 -0.0008115442147678089863938045 0.6744067586513029510797423
1.224282190405888481876673 0.0001874692413130722300380893 0.6740947211645755832165605
1.215855122451898751023691 0.01437953325282606206747538 0.681378222411645140255132
1.207927561225949242285083 0.03185774413426052664721766 0.6889737611454420651568853
1.207927561225949242285083 -0.003098677628608396007053871 0.6889737611454420651568853
0.7360018478756424897824218 -0.00679778254922911231994398 0.7427996304248714043438895
0.7288014783005137831040088 0.01213481163384723567066903 0.7355992608497429197100814
0.7360018478756422677378168 0.03106740581692357672238813 0.7427996304248714043438895
0.7217164288128957716494938 -0.04131342847484159586102237 0.7130298572877376006573513
0.7202302268628658632465545 -0.02691268932458460230727759 0.7224961543792757234783153
0.7302876802505438025292506 -0.03559926084974299881347193 0.7348195352833633009481673
0.720230226862865752224252 0.02691268932458471679902701 0.7224961543792753904114079
0.7302876802505435804846456 0.03559926084974301963015364 0.7348195352833629678812599
0.7217164288128954385825864 0.04131342847484169300553702 0.7130298572877373786127464
0.7217164288128957716494938 -0.02394028542452479937918675 0.7043432857625792076206039
0.7173731430503165196199689 0.0007064763836502225289107337 0.7086865715251582376055239
0.7217164288128957716494938 0.02535323819182515661663224 0.7043432857625790965983015
0.7158869411002866112170295 0.002265927516409780434480936 0.7181528686166963604264879
0.7187440249128359548436151 -0.007980095141508250847217631 0.7232758799456553422402294
1.226872035643138403315788 0.002337348647998086555860331 0.7254653130048598352885847
1.227689029307567736282181 -0.0007033613191393197922735014 0.7269856679884285632908814
1.221341363962663351117044 -0.01199196937066990438502945 0.7356706819813313424916146
1.214176704953329188896305 -0.03099598468533464393215304 0.7428353409906656157346561
1.214176704953329188896305 0.007012045943994824753753292 0.7428353409906656157346561
1.220336374403329315896372 -0.0197073766338040599899184 0.7196330130841899208604673
1.211475277610897016700164 -0.03403669465247266545659954 0.7101310054268574756264343
1.213988709058424486642025 -0.03567068198133140077832337 0.7283180270770929221058054
1.213988709058424486642025 0.03567068198133140077832337 0.7283180270770929221058054
1.218827932515135437085974 0.01970737663380408080660011 0.7174836603310961180568484
1.212292271275326571711162 0.03567068198133141465611118 0.7116513604104263146510334
1.218010938850706104119581 -0.0166666666666666525575824 0.7159633053475273900545517
1.209966835722703359934371 -0.03134815028439358330913933 0.7079816526737634507782104
1.209966835722703359934371 0.001985183048939758668899325 0.7079816526737634507782104
0.7400636290556535934470617 -0.001938990848644199212549855 0.7920026199042978776176938
0.7320278846713799136836087 0.0153995822932849000391764 0.784005239808595821848769
0.7400636290556535934470617 0.03273815543521398085946572 0.7920026199042979886399962
0.7361189998756929586676279 -0.03559926084974299187457802 0.7717182607254360338089327
0.729715640821138156191239 -0.01960450065833874155885042 0.78038754729640058549478
0.7385483957259855181121111 -0.03400523980859573858204215 0.789853844387938708315744
0.7297156408211382672135414 0.01960450065833879707000165 0.7803875472964008075393849
0.7385483957259855181121111 0.03400523980859577327651166 0.7898538443879390413826513
0.7361189998756929586676279 0.03559926084974302656904754 0.7717182607254362558535377
0.7360018478756424897824218 -0.006797782549229107115773552 0.7572003695751284846338081
0.7288014783005138941263112 0.01213481163384724781373336 0.7644007391502569692676161
0.7360018478756424897824218 0.03106740581692358019183509 0.7572003695751284846338081
0.7223981192459590916499224 0.0006719064752624584035273214 0.7730700257212215209534634
0.7231951297665327738073415 -0.002265927516409641656602858 0.7745389427170575880055026
1.228220369635585784706677 0.00176604197517482488372087 0.7735456723395890410444053
1.227934716299174056075572 -0.002337348647998366280020832 0.7755973676511757064488961
1.220198750617016436592621 -0.01313458271631696462622418 0.7850993753085082627052316
1.212748438271270545740776 -0.03156729135815845160850657 0.7925496876542542645793787
1.212748438271270545740776 0.005298125925524511947717343 0.7925496876542542645793787
1.220484403953428165223727 -0.02077005728983984805813279 0.7681470553054297045747489
1.213605398280505731634094 -0.03567068198133170608965514 0.7589307009845089879718216
1.212748438271270545740776 -0.0350993753085081378051413 0.7776490629627623718533869
1.212748438271270545740776 0.03509937530850815168292911 0.7776490629627623718533869
1.221055710626251844530543 0.0207700572898398688748145 0.7663810133302548788236663
1.213319744944094003002988 0.03509937530850815168292911 0.7609823962960955423540099
1.221341363962663573161649 -0.0166666666666666594964763 0.764329318018668324441478
1.21417670495332941094091 -0.02632128738933819239731449 0.757164659009334162220739
1.214176704953329188896305 0.007012045943995137003978968 0.757164659009334162220739
0.7421366998529448366639372 0.00322905885661007446829629 0.8110923590036650532297813
0.7342733997058896733278743 -0.01666666666666668725205191 0.8187512292812497705085661
0.7421366998529448366639372 -0.03010427447672325840244412 0.8110923590036649422074788
0.72582814836807107994332 -0.0002238360089705914574009782 0.8260519843770415260308937
0.7252461971773074278502236 0.0009400663725565701562061904 0.8256938691952484532521339
0.732911155786842294368455 -0.01812407013137964234550381 0.8168780313068665366316168
0.7415031576662538537192404 -0.03427339970588994672029415 0.809947862761638104345252
0.725099446635714572906295 -0.001681239473683548719257219 0.8253232826446850189938687
0.725099446635714572906295 0.001681239473683479980839484 0.8253232826446850189938687
0.732911155786842294368455 0.01812407013137960071214039 0.8168780313068666476539192
0.7415031576662538537192404 0.03427339970588993284250634 0.809947862761638326389857
0.7401409137472065857821235 -0.001784421465538153827104506 0.8080746647872549814906051
0.7321824540544858983537324 0.01539958229328485146691907 0.8161493295745101406168942
0.7401409137472065857821235 0.03258358605210788516703957 0.8080746647872550925129076
0.7243707449033580658692699 0.0002238360089705227189832426 0.8245945809123285119568436
0.724517495444951031835501 -0.0005173370921563871056500505 0.8249651674628919462151089
0.78877799261320380441731 -0.00349440583795937540628751 0.8422723984511628625426738
0.7809803986298571309987437 0.01438372439770027599870161 0.8345447969023260803567155
0.78877799261320380441731 0.032261854633359926536329 0.8422723984511630845872787
0.773252797081020237790483 -0.03454479690232631350355064 0.8267502280265228709055236
0.7732527970810203488127854 0.03454479690232632044244454 0.8267502280265230929501286
0.7577276015488367821859583 0.00350045605304646206823449 0.8112280576018832123352809
0.7654552030976735643719167 -0.0143776741826131884693929 0.8190226264776860887195653
0.7577276015488366711636559 -0.03225580441827283206812638 0.8112280576018831013129784
1.19309968512567587950457 0.008598110754054460319606434 0.8154984256283788202068763
1.186199370251351803418061 -0.01666666666666668378260496 0.8223987405027031183379904
1.19309968512567587950457 -0.02473522257927887602058092 0.8154984256283787091845738
1.172398740502704317378857 -0.01093459283062787369689151 0.8361993702513517146002187
1.165498425628381351515372 -0.03046729641531283061528512 0.8430996851256759017090303
1.165498425628381351515372 0.008598110754057098834013395 0.8430996851256759017090303
1.179299055377027727331551 -0.03619937025135164243572206 0.8154984256283790422514812
1.165498425628380241292348 -0.03619937025135163549682815 0.8292990553770276385137095
1.165498425628380241292348 0.03619937025135162855793425 0.8292990553770277495360119
1.179299055377027727331551 0.03619937025135162855793425 0.8154984256283791532737837
1.22699857565548509086284 0.0004650673606214726228842704 0.8234664917051360832900286
1.226348088348208742459633 -0.001766041975174633413617209 0.8245820463730340055263923
1.22403204890161232398782 -0.002866036918017745779851957 0.8268980858196302019536006
1.222366496762292920053028 0.0004650673606214756044402447 0.8280985705983283651221427
1.218247288695186059115372 -0.01889777600246279540274763 0.8164812467200116552490385
1.211447463656717182800548 -0.0350993753085079504550059 0.8079153797063677311385277
1.215466181887968399877309 -0.01999777094530590798582281 0.8211982557240042890356335
1.209030934374265564557049 -0.03379840069395485119274625 0.8118969712922838866120401
1.215931249248590084732768 0.01999777094530586982190634 0.8187972861666078516762468
1.207365382234946160622258 0.03619937025135104569084632 0.8130974560709819387582797
1.2195482633097394220556 0.01889777600246275376938421 0.8160161793593900814158815
1.210796976349440612352737 0.03379840069395483037606454 0.8090309343742656533748914
1.220198750617015992503411 -0.01666666666666669072149887 0.8149006246914920481572153
1.212748438271270323696172 -0.02803520740780904990652189 0.8074503123457460462830682
1.212748438271270323696172 0.00529812592552428469894199 0.8074503123457460462830682
1.206900314874324475766798 0.008598110754053877452518506 0.8154984256283785981622714
1.213800629748648995942517 -0.01093459283063051568074542 0.8223987405027024522041756
1.206900314874324475766798 -0.03046729641531489840566849 0.8154984256283783761176664
0.79192154866811925728598 0.001772032728228676136741915 0.8598504840601093324181647
0.7838430973362383591407365 -0.01666666666666668031315801 0.867807565032233219071145
0.79192154866811925728598 -0.03156130060510466128764762 0.8598504840601092213958623
0.7753993097978133519632138 -0.0002209084101833176975396983 0.8756202182079964035921193
0.7750339735912691319086321 0.0005097640029049196929225585 0.8754757904116357014601135
0.7819829253405808922039455 -0.01810406838901500864436045 0.8664577298083973033726579
0.7907800775336359944134301 -0.03384309733623827587400967 0.8592193496974473987393139
0.7746806089366391478989726 -0.001658310132531647844780776 0.8749015173468223105501806
0.7746806089366391478989726 0.00165831013253161770396038 0.8749015173468223105501806
0.7819829253405808922039455 0.01810406838901498782767874 0.8664577298083974143949604
0.7907800775336359944134301 0.03384309733623826893511577 0.8592193496974476207839189
0.788919905537978749521244 -0.003210579988409796581283473 0.8578695144736114830408269
0.7812642244794067991620068 0.01438372439770026385563728 0.8657390289472233213530217
0.788919905537978749521244 0.03197802878381032776200499 0.8578695144736114830408269
0.7739619080754649438347315 0.0002209084101832876651395204 0.8741828164856482175082419
0.7743152727300950388666934 -0.0009276377194434105898437903 0.8747570895504616084181748
0.8428330763984656082143943 0.006998458390792931804735844 0.864165381992327397142617
0.8356661527969311276109465 -0.01666666666666667684371106 0.8713323055938617667237622
0.8428330763984656082143943 -0.02633487494254040453545151 0.864165381992327397142617
0.826997225990012241325644 -0.000671186947171045419913149 0.8776684129371830067611882