# geometry NO_DATA 492
#  x  y  z
3.849032301228317187735684 0.04367594688527771246144837 2.094643645656960373457878
3.848064602456633842564315 -0.01666666666666667684371106 2.095870274670955879514622
3.849032301228317187735684 0.01034261355194437265181406 2.094643645656960373457878
3.844168073937886731528124 0.008873609629172014151565762 2.098064602456633842564315
3.841239244190822521574091 -0.02252432616079550614651694 2.099032301228317187735684
3.841239244190822077484881 0.04027154541913954138854237 2.099032301228316743646474
3.847160628647224633880342 -0.04806460245663420061124071 2.094966300861547114919858
3.84326410012847796693336 -0.04806460245663420061124071 2.097160628647225522058761
3.84326410012847796693336 0.04806460245663418673345291 2.097160628647225077969551
3.847160628647225522058761 0.04806460245663419367234681 2.094966300861547114919858
3.895338740348807338165216 0.02605748014861404560083002 2.080718739799806371593149
3.890677480697615209237483 -0.01666666666666669072149887 2.083367480423114148635477
3.895338740348807338165216 -0.007275853184719297678251237 2.080718739799806371593149
3.87622417107838490579752 -0.01223995257179239307121499 2.088464123650177306501519
3.866432121110348507642129 0.007344147364281194273472053 2.090912026253932687325232
3.889549869574551621553837 -0.04067748069761456530812893 2.082239869300051005041041
3.864218764062910871359691 -0.0362507666027402641883981 2.090931055515691916468768
3.872883202907884570009855 -0.04067748069761456530812893 2.087355541788872947961408
3.875096559955322650381504 0.03625076660274022949392858 2.087336512527114162907083
3.863091152939848615943674 0.04557328590512569471693283 2.089803444392628328785122
3.889549869574552065643047 0.04067748069761454449144722 2.082239869300051005041041
3.852213357047436836921861 0.04118463033376921350603439 2.093397987381206082346807
3.8544267140948744732043 0.01227801109531017481613091 2.093378958119447297292481
3.852213357047436836921861 -0.01662860814314884999598476 2.093397987381206082346807
3.936427103306898267476299 -0.002054041798102961696725899 2.070879209127382658550687
3.943213551653448778466782 0.01770639484212885306213536 2.07139907321511396176561
3.943213551653448778466782 -0.02181447843833478339448106 2.07139907321511396176561
3.925286114195627895639973 -0.02227869436637180261540081 2.072192344222062665437534
3.934878576392031312991548 -0.03642710330689848119423146 2.072424452186081289539743
3.915405895875512243264893 -0.03585159105947332419672691 2.074762562267678411842553
3.915405895875512243264893 0.03585159105947332419672691 2.074762562267678411842553
3.925286114195627895639973 0.02227869436637180955429471 2.072192344222062665437534
3.934878576392031312991548 0.03642710330689848119423146 2.072424452186081289539743
3.926834641110494850124724 -0.002518257726139984387092596 2.070647101163364034448477
3.92402862726064194376363 0.003093769973565153961342356 2.070934857287076713561191
3.914148408940526735477761 0.002046666117666164942667795 2.073505075332692459966211
3.907074204470263545374564 0.02123159051047282530610971 2.075787537254595527258516
3.907074204470263545374564 -0.01713825827514049021660369 2.075787537254595527258516
3.988683520168773810610219 -0.00633327431523890080344863 2.066483176006939537217022
3.994341760084386905305109 0.01568357918686871452229603 2.065991632267040856163476
3.994341760084386905305109 -0.02835012781734651612919329 2.065991632267040856163476
3.973728832806497912599752 -0.02619283482018032460647561 2.068378645971057583352604
3.984150156798867747909298 -0.03868352016877427829166791 2.067299999472474780759512
3.962720406055444399839871 -0.03750931465140604215147135 2.070026718489726746952329
3.962720406055444843929081 0.03750931465140604909036526 2.070026718489726746952329
3.973728832806497912599752 0.02619283482018032807592256 2.068378645971057583352604
3.984150156798868636087718 0.03868352016877428523056182 2.067299999472474780759512
3.978262196176403975300673 -0.004175981318072711015454423 2.067561822505522783899323
3.973499112099647234686017 0.005350186835440950625097933 2.068148925264206461349659
3.962490685348593277836926 -0.002054041798102961696725899 2.069796997782875180860174
3.95624534267429606160249 0.0187886061866364174888222 2.070857967542860222920353
3.95624534267429694978091 -0.02289668978284234435172095 2.070857967542860222920353
4.04723581327344916758193 -0.01260111565751907691801392 2.054796962231125512232666
4.048617906636724939062333 0.01796803094926258809183039 2.055447644372423443570597
4.048617906636724939062333 -0.04317026226430073498896434 2.055447644372423443570597
4.022431064433351188824872 -0.04164071471358882225999309 2.058528584493235946695222
4.036300181820088539552671 -0.04723581327344833491466147 2.057763810717879948697373
4.007146491129960352850503 -0.04440490144014049012088918 2.062313187305673700677744
4.007146491129960352850503 0.04440490144014049012088918 2.062313187305673700677744
4.022431064433350300646453 0.04164071471358882225999309 2.058528584493235946695222
4.036300181820088539552671 0.04723581327344832103687366 2.057763810717879948697373
4.033366695886711816854131 -0.01107156810680716071959573 2.055561736006481510230515
4.020879671863250237606735 0.01390247994011499510502716 2.056977191923135439566295
4.005595098559859401632366 -0.006333274315238899068725154 2.060761794735573193548817
4.002797549279929256726973 0.02140496045823492288207035 2.063130941631357462284768
4.002797549279929256726973 -0.03407150908871272448896761 2.063130941631357462284768
4.098964711594613063994075 -0.01468258721901796737263624 2.052027328129210737017729
4.099482355797306354361353 0.01761545770892881251912243 2.052501723650341780569306
4.099482355797306354361353 -0.04698063214696477501997052 2.052501723650341780569306
4.06905812835958879958298 -0.04697310190874535995586569 2.053426750098308772862765
4.084728990183321251095094 -0.04896471159461344285768192 2.053422984979198950838963
4.052909105895615482495487 -0.04800839031413192681263524 2.05494188140018962940303
4.052909105895616370673906 0.04800839031413190599595353 2.05494188140018962940303
4.0690581283595896877614 0.04697310190874538771144131 2.053426750098309216951975
4.084728990183321251095094 0.04896471159461347061325753 2.053422984979198950838963
4.08329384977088061248196 -0.01467505698079856098214879 2.052031093248320559041531
4.068140632149841451337124 0.01563137826128013080362322 2.05250925388856142461691
4.051991609685868134249631 -0.0126011156575190786527374 2.054024385190441837067965
4.050995804842934866485393 0.01874060798994617998980416 2.055061355852081383943641
4.050995804842933978306974 -0.04394283930498432688693811 2.055061355852081383943641
4.147305952494147796016932 -0.01111886003952436592634445 2.055467950819422462416242
4.148652976247072743376521 0.0195204257879571033140742 2.056894830380068039943353
4.148652976247072743376521 -0.04175814586700582475842225 2.056894830380067595854143
4.116967996990053002548393 -0.04623083844816092830010135 2.052995377829237799716111
4.133097106633725204005714 -0.04730595249414813741051233 2.055231724119815694962199
4.101648354076312230631629 -0.04892488595401279366514657 2.052640393800136298096959
4.101648354076311342453209 0.04892488595401282142072219 2.052640393800136742186169
4.116967996990052114369973 0.04623083844816094911678306 2.052995377829238243805321
4.133097106633725204005714 0.04730595249414813047161843 2.055231724119815694962199
4.131176842850474706381192 -0.01559155262067946426385312 2.053231604528845011259364
4.11639475695972656410504 0.01397261916081482188700669 2.052422137798912693540387
4.101075114045986680366696 -0.01468258721901796737263624 2.052067153769811191921235
4.100537557022992274369244 0.01757563206832815291824623 2.052521636470642008021059
4.100537557022993162547664 -0.04694080650636411888854127 2.052521636470642008021059
4.191529573641423311869403 -0.000439536634982436614105944 2.06658399137441772808188
4.195764786820711300663334 0.02442337033977534654916042 2.070462343210972111506862
4.195764786820711300663334 -0.02530244360974021750054774 2.070462343210972111506862
4.168688646615676951512341 -0.03717828469751788267316783 2.060492406307586676916799
4.183179668810390161581836 -0.04152957364142444152133038 2.066430326851476095839644
4.15625719312829922102992 -0.04564871105609343004960721 2.059031096441869657098778
4.1562571931282983328515 0.04564871105609343004960721 2.059031096441870545277197
4.168688646615676951512341 0.03717828469751787573427393 2.060492406307586676916799
4.183179668810391049760256 0.04152957364142444846022428 2.066430326851476095839644
4.177038551446710101799908 -0.01231537772276010758720766 2.060646070830528309159035
4.166782742431283992345925 0.008196240308091101711696069 2.058586502123193717750382
4.154351288943905373685084 -0.01111886003952436419162098 2.057125192257477142021571
4.152175644471952864478226 0.01786318434990240636150993 2.057723451099095601790623
4.152175644471952864478226 -0.04010090442895112433641103 2.057723451099095157701413
4.232377836339543897281601 -0.01303111465035738589235415 2.095408950989900986883185
4.223075491684920024226813 0.0111201206627787908820526 2.090817901979802329037739
4.232377836339544785460021 0.03527135597591497112590631 2.095408950989900986883185
4.218484442674820478202946 -0.0408179019798028466792239 2.086855849339076307558116
4.218484442674821366381366 0.0408179019798028466792239 2.086855849339076307558116
4.204591049010097947302711 0.02371169867815374476816004 2.078302747688252072322257
4.209182098020196605148158 -0.000439536634982436614105944 2.08226480032897764971267
4.204591049010097947302711 -0.02459077194811861571954736 2.078302747688252072322257
3.795493021279073175833219 0.02159572184893879254197202 2.126102700569864722979219
3.790986042558146529302121 -0.0166666666666666664353702 2.131290882203542569328647
3.795493021279073175833219 -0.01173761148439454379821534 2.126102700569864722979219
3.779797464160463249527311 -0.005710490128701339873629195 2.140986042558146618119963
3.773115864483705284015969 -0.03002986602018180295470273 2.145493021279073264651061
3.773115864483705284015969 0.01860888576277911626855044 2.145493021279073264651061
3.788903054531591152453984 -0.04098604255814712604699679 2.1292078941769867483913
3.777714476133906984500754 -0.04098604255814712604699679 2.138903054531591241271826
3.777714476133907428589964 0.04098604255814712604699679 2.138903054531590797182616
3.788903054531591152453984 0.04098604255814712604699679 2.1292078941769867483913
3.820623659257846416181792 -0.0443405266118413535214593 2.107853521109927186216737
3.807853521109926919763211 -0.0443405266118413535214593 2.114825027421989744880193
3.807853521109926919763211 0.0443405266118413535214593 2.114825027421989744880193
3.820623659257846416181792 0.0443405266118413535214593 2.107853521109927186216737
3.828370012989918080847929 -0.01880025031600266252618248 2.102829736694078910375083
3.818429611536077405986589 0.008873609629172031498800521 2.105659473388158176021534
3.828370012989917192669509 0.03654746957434671511544266 2.102829736694078910375083
3.805659473388157909568008 -0.002723654042541658829718054 2.11263097970022073468499
3.802829736694078199832347 0.02495020590263302695532843 2.116772749318204027701995
3.802829736694079088010767 -0.03039751398771635762519061 2.116772749318204027701995
4.248451347706323488750968 -0.01267060039142837643555417 2.103546685431294971380112
4.249225673853161744375484 0.01911408064822834804163953 2.104770392422076419336463
4.249225673853161744375484 -0.04445528143108510438219483 2.104770392422075975247253
4.246452400851216779642527 -0.04845134770632339438201086 2.102772359284457159844806
4.246452400851217667820947 0.04845134770632339438201086 2.102772359284457159844806
4.245678074704379412196431 -0.01666666666666666296592325 2.101548652293676155977664
4.24367912784927359126641 0.009571468369102189427399807 2.100774326146837900353148
4.24367912784927359126641 0.04290480170243552576758717 2.100774326146837900353148
4.275755012039740066143167 0.001132754008934451408346922 2.125377741969193046145392
4.276227071526570888693186 -0.0001886350352741423164366907 2.126038436491297645147824
4.282215555788993377461793 0.01216560356011807050857776 2.134466087342267393012207
4.287731980564585043680381 -0.005633817115483018278521143 2.142233043671133874141788
4.287731980564585043680381 0.02996502423571913847899495 2.142233043671133874141788
4.275017951105201774453235 -0.002606875878013435211821847 2.124829316069927642729454
4.266590300254231138410432 -0.0190849075094059288104642 2.118588333391850486719932
4.273315845451192807047391 -0.03446608734226772052799959 2.127564410142086082089463
4.266590300254231138410432 0.01908490750940598779106239 2.118588333391850486719932
4.273315845451191918868972 0.03446608734226775522246911 2.127564410142086082089463
4.275017951105201774453235 0.002606875878013516310144349 2.124829316069927642729454
4.274545891618370951903216 -0.001285486833804841974929212 2.124168621547823043727021
4.273808830683831772034864 0.0001886350352742228455530521 2.123620195648558084400293
4.265381179832861135992061 -0.01267060039142835214942551 2.117379212970480484301561
4.257690589916430567996031 0.005281553109043180330162137 2.111686656191669175797188
4.257690589916430567996031 -0.03062275389189991758875919 2.111686656191668731707978
3.746494463469322688808916 0.02270344198683938233274127 2.17620897851751537999121
3.742988926938646265796251 -0.01666666666666666296592325 2.182846184462742478160635
3.746494463469322688808916 -0.01062989134649395053799914 2.17620897851751537999121
3.735699861781846209396463 0.002088536353066384500254404 2.192988926938646443431935
3.731916333155723464187759 -0.02423372391891365218441479 2.1964944634693228664446
3.731916333155723464187759 0.02841079662504641945020012 2.1964944634693228664446
3.741073101158008729072435 -0.04298892693864670572212461 2.180930358682104941436819
3.733784036001208228583437 -0.04298892693864670572212461 2.191073101158008462618909
3.733784036001208228583437 0.04298892693864670572212461 2.191073101158008462618909
3.741073101158008729072435 0.0429889269386466987832307 2.180930358682104497347609
3.761005136681524252395548 -0.04626408175930431243561003 2.155527048412541724076164
3.755527048412541368804796 -0.04626408175930431243561003 2.162050972603304366259636
3.755527048412542256983215 0.04626408175930430549671613 2.162050972603304366259636
3.761005136681524252395548 0.04626408175930430549671613 2.155527048412541724076164
3.762824135658313196017843 -0.03530790522133898934331597 2.151867959120347340018498
3.759214006509678185352641 -0.005710490128701346812523099 2.153735918240695212944047
3.762824135658313196017843 0.02388692496393629571826978 2.151867959120347340018498
3.753735918240695301761889 -0.003618818285140655652970532 2.160259842431458299216729
3.75186795912034742883634 0.02597859680749698557677974 2.164915807501873068474652
3.75186795912034742883634 -0.03321623337777829254591211 2.164915807501873068474652
4.29824828696066951749799 -0.01006062892053096076427909 2.155054731912398047199986
4.299124143480334225841943 0.02152099137347220081384336 2.157481894265800281829115
4.299124143480334225841943 -0.04164224921453411887295459 2.157481894265800725918325
4.296873611927059855020161 -0.04824828696066982280932223 2.154178875392732450677613
4.296873611927059855020161 0.04824828696066982974821613 2.154178875392732450677613
4.295997755407395146676208 -0.01666666666666666296592325 2.151751713039329771959274
4.294623080373786372376799 0.01041389052078787492983114 2.150875856519665063615321
4.294623080373786372376799 0.04374722385412119912695417 2.150875856519665063615321
4.31998926503604341320397 -0.02585634967928209307364007 2.195845614715326021837427
4.316226210445032407392318 -0.0008317869152962310006285684 2.19169122943065231012838
4.31998926503604341320397 0.0241927758486896252176912 2.195845614715326021837427
4.312071825160359139772481 -0.04169122943065252384631236 2.182481966921727245534157
4.312071825160359139772481 0.04169122943065252384631236 2.182481966921726801444947
4.304154385284673089984153 0.01496393384345489664666307 2.169118319128128469230887
4.30830877056934724578241 -0.01006062892053096249900257 2.17832758163705353382511
4.304154385284673089984153 -0.03508519168451681990994473 2.169118319128128469230887
3.713077095257532711514159 -0.03328748659304572865558214 2.246364581850578190369561
3.711991674852898714931371 -0.007224989558556037597125687 2.242729163701156380739121
3.713077095257532711514159 0.01883750747593365693077772 2.246364581850578190369561
3.721702781259906167576901 -0.03993716889393573998834341 2.212325179750039172432707
3.715960597899461426152357 -0.03266633259509210684967684 2.22535642826728441434625
3.71565002090048501770525 -0.04272916370115636963689099 2.236991679380919251229898
3.715960597899462314330776 0.03266633259509209991078293 2.22535642826728441434625
3.71565002090048546179446 0.04272916370115634882020927 2.236991679380918807140688
3.72170278125990705575532 0.03993716889393573998834341 2.212325179750039172432707
3.723786618572765494405985 -0.0211819658742026933895275 2.205031415553031948206808
3.719440432615931158011335 0.002088536353066381030807452 2.210062831106063718777932
3.723786618572765494405985 0.02535903858033546065531283 2.205031415553031948206808
3.713698249255486416586791 0.009395830367823026357809724 2.223094079623308516602265
3.712302251851876011556897 -0.006603835560602412321773436 2.231093912587521543855473
4.337323746073031394132613 0.01068849534593421281292169 2.223364749272902063381707
4.339178244545966123268954 -0.006979498400064796173603021 2.23219874614590185757379
4.34049642244143374369969 0.009615854190998683950764025 2.244021828679267471784442
4.339960101863965746815666 -0.01773930782160219182808092 2.247010914339633735892221
4.339960101863965746815666 0.03697101620359955626016202 2.247010914339633735892221
4.337032201887105031801184 -0.03433466041266567542189492 2.23005270348704076610602
4.331272060756489850064099 -0.04031283173339813424851386 2.216375122480740422759027
4.33835037978257354041034 -0.04402182867926754394893862 2.241875786020406380316672
4.33835037978257265223192 0.04402182867926754394893862 2.241875786020406824405882
4.333418103415350941531869 0.03433466041266567542189492 2.218521165139600626048377
4.33312655922942546737886 0.04402182867926755088783253 2.2252091193537397728619
4.331563604942416212395528 -0.01666666666666666990481716 2.209687168266601275945504
4.327657962284735759794785 -0.01051895518189810418974162 2.204843584133300282701384
4.327657962284735759794785 0.02281437815143523908933965 2.204843584133300282701384
3.718047048549562916264222 -0.02812104321092426945094545 2.296168091760486973385014
3.714771386634051708597326 -0.00245152635661747631337648 2.292336183520973236227292
3.718047048549562916264222 0.02321799049768931769155422 2.296168091760486973385014
3.713240625009233131237352 -0.0439801750374615718630622 2.25851978645517714738844
3.712351694694691062181846 -0.03631635855843503429829511 2.2713545448823304617747
3.716449352368446756855747 -0.04233618352097346521079047 2.285011299067728263167965
3.712351694694691062181846 0.0363163585584350273594012 2.2713545448823304617747
3.716449352368446312766537 0.04233618352097344439410875 2.285011299067728263167965
3.713240625009233131237352 0.0439801750374615579852744 2.25851978645517714738844
3.712451589589380152034437 -0.03453849792935093782064726 2.253009912481268806061507
3.710740663516594040061136 -0.007224989558556037597125687 2.256019824962538056212225
3.712451589589380152034437 0.02008851881223886262639589 2.253009912481268806061507
3.709851733202051526916421 0.009002850187640123666432679 2.268854583389691370598484
3.710673728960295569834216 -0.01064684170412824246176875 2.278679429335575434834027
4.345504824505205476725678 0.01481827308503350267010479 2.269313448579827863227365
4.346366117066377654509779 -0.01309568796268877066690806 2.283270429103689380667674
4.346538930560651436962871 0.0134413149512356867865126 2.298151606418366910133955
4.345850451493753041631862 -0.01804362480046448058423891 2.299075803209183366249135
4.345850451493753041631862 0.04492625470293585415726412 2.299075803209183366249135
4.345468567413403704335906 -0.04458062771438893456821262 2.282372879450715430493801
4.342867357966387231726912 -0.04642902129602211047654237 2.26663040957486572324342
4.345641380907677486788998 -0.04815160641836683380612172 2.297254056765393404049291
4.345641380907677486788998 0.04815160641836683380612172 2.297254056765393404049291
4.343764907619360293722366 0.04458062771438893456821262 2.267527959227838785238873
4.343728650527559409511014 0.04815160641836683380612172 2.280587390098726796594519
4.342903615058188115938265 -0.01666666666666666990481716 2.253570978703978155976984
4.341163698172342932934953 0.006044875487020783845493188 2.251785489351988633899282
4.341163698172342932934953 0.03937820882035411584887186 2.251785489351988633899282
3.737047783222444685691244 0.01526244792333612300405665 2.328214664700891223247936
3.742470727553723897074178 -0.004416559260777099156503045 2.338054168292947654350655
3.748207569495106028512055 0.01589024314354024400297583 2.348595781256669567937934
3.748521467105208060388577 -0.01603887144646256451840927 2.349297890628334606333283
3.748521467105208060388577 0.04781935773354304558546701 2.349297890628334606333283
3.742461059482316443336458 -0.0363456738507799068105264 2.338044500221539312434516
3.733604072342340263190863 -0.03774989259411044156822257 2.322079942926538187464303
3.748197901423698130685125 -0.04859578125666946801786139 2.348586113185261226021794
3.748197901423698130685125 0.04859578125666947495675529 2.348586113185261226021794
3.733613740413747272839373 0.03634567385077989987163249 2.322089610997946085291233
3.739027016673619474573798 0.04859578125666947495675529 2.331919446518594618567022
3.728190796082467617367229 -0.01666666666666669072149887 2.312250107405889654188513
3.724756753273770648604568 -0.01470163376250705269954189 2.30612505370294496032102
3.724756753273770648604568 0.01863169957082628017119852 2.30612505370294496032102
4.347067088298713244398641 0.01425409355164481209343741 2.317187005252931086829449
4.346724114313090581163124 -0.01494004152289096255812328 2.331784072790198614200108
4.34522563455944421662025 0.01194308201559903838406829 2.347587426884977013230582
4.344070128791422291669733 -0.01897767820271244534890975 2.348793713442488328979607
4.344070128791422291669733 0.04286384223391052211704633 2.348793713442488328979607
4.345670197862697037294311 -0.04586080174120244629110132 2.330730156339805958509714
4.345263808562493501597146 -0.04827337485622430063303412 2.315269776230650666803967
4.344171718109051560929856 -0.04758742688497814843362477 2.346533510434584801629398
4.344171718109052449108276 0.04758742688497814843362477 2.346533510434584801629398
4.346317725012886157287539 0.04586080174120243935220742 2.316323692681042878405151
4.344920834576869950183209 0.04758742688497814843362477 2.329866843767918194174626
4.346660698998508820523057 -0.01666666666666666296592325 2.301726625143775351034492
4.345911335712681733411955 0.01171468980745998984815959 2.300863312571888030788614
4.345911335712681733411955 0.04504802314079332098417652 2.300863312571888030788614
3.749683944207435892792546 -0.01575316453650058359792219 2.350772806857647001521627
3.749841972103717502307063 0.01726411300426871145430319 2.351071530026447753414232
3.749841972103717502307063 -0.04877044207726988211959451 2.351071530026447753414232
3.749453760342154939877446 -0.04968394420743595107925472 2.3506147789613649479179
3.749453760342154495788236 0.04968394420743596495704253 2.3506147789613649479179
3.749295732445872886273719 -0.0166666666666666594964763 2.350316055792563751936086
3.749065548580591045180199 0.01557418735097620444973732 2.350158027896282142421569
3.749065548580591489269409 0.04890752068430953558575425 2.350158027896282142421569
3.786589085026421663826568 -0.007439764363270093446012243 2.39402884938969240380402
3.777251268428671870935887 0.01395126774944839206926694 2.388057698779384896425881
3.786589085026421663826568 0.03534229986216687324773744 2.39402884938969240380402
3.771280117818364807646958 -0.0380576987793851476138407 2.377818933788108601845579
3.771280117818364807646958 0.0380576987793851476138407 2.377818933788108601845579
3.755971150610307063288928 0.005637867576217899315271787 2.361609018186524799887138
3.761942301220614570667067 -0.01575316453650058706736914 2.37184778317780153855665
3.755971150610307063288928 -0.03714419664921907171528659 2.361609018186525688065558
4.343574474975333998827409 0.01021931958925524283610109 2.366644844613920994902401
4.341951727179608866435956 -0.01346481518070630906125373 2.3784869119989018315664
4.337286514437092677098917 0.004134389695673309356171998 2.393552652922588563910722
4.334244049490301620153332 -0.02275159656024859991529929 2.396776326461294459591045
4.334244049490300731974912 0.03102037595159521515819634 2.396776326461294459591045
4.340098565547138242948222 -0.04035080143662821833272503 2.376633750366432096257086
4.340960446760310453839793 -0.04679814851403964193199414 2.363190757238470496304217
4.335433352804622053611183 -0.04355265292258857223739454 2.391699491290118828601408
4.335433352804622053611183 0.04355265292258856529850064 2.391699491290118828601408
4.342813608392781077327527 0.04035080143662822527161893 2.365043918870940675702741
4.33933769896458532144834 0.04355265292258857223739454 2.375032824623451332968216
4.34443635618850620971898 -0.01666666666666666990481716 2.353201851485959839038742
4.343675489605953288219098 0.008741230529638677540504865 2.351600925742979519839082
4.343675489605953288219098 0.0420745638629720156154157 2.351600925742979519839082
3.799043611662043407051215 -0.01422291190149709179391113 2.402178265720540384364767
3.799521805831020948573951 0.01815403309388033403770635 2.402921948934147344800749
3.799521805831020948573951 -0.04659985689687452109497556 2.402921948934147344800749
3.798164106372412085477208 -0.04904361166204408706281725 2.401700071551562842842031
3.798164106372412085477208 0.04904361166204410094060506 2.401700071551562842842031
3.797685912203434543954472 -0.0166666666666666594964763 2.40095638833795543831684
3.796806406913803222380466 0.01299487941149249543848487 2.400478194168977896794104
3.796806406913802778291256 0.0463282127448258265745018 2.400478194168977896794104
3.834280608347530261426073 0.009941071414993151930672433 2.42902326069329976832023
3.842140304173764953077352 0.02755501309585681180003292 2.434467433907895106415253
3.842140304173764508988143 -0.0076728702658705296227315 2.434467433907895106415253
3.817698723998490084596824 -0.024669144012217775890905 2.416751448984293837440873
3.82955965849750068485946 -0.03428060834753032803945416 2.42524958585746741590583
3.808891753158058612882542 -0.04038853566468744715756145 2.410113630540643647748311
3.808891753158058612882542 0.04038853566468748185203097 2.410113630540643647748311
3.817698723998490528686034 0.02466914401221783140205623 2.416751448984293837440873
3.82955965849750157303788 0.03428060834753034191724197 2.42524958585746785999504
3.822419673848519217074227 -0.00705520233135409867430976 2.420525123820126189855273
3.81841843517574375255208 0.0009472750141970455841147758 2.417471160161547505396129
3.809611464335311836748588 -0.01422291190149706577305899 2.410833341717897315703567
3.804805732167655385467242 0.009498957096523718418579207 2.407249486932825810470149
3.804805732167655385467242 -0.03794478089951787425082586 2.407249486932825810470149
3.861097195262498615875302 -0.03756201965492165367743738 2.448659214917420445800644
3.857559775255118950099131 -0.006910256486747470491827094 2.447318429834840713965605
3.861097195262498615875302 0.02374150668142672310212404 2.448659214917420889889854
3.856218990172538774174882 -0.04731842983484085829459787 2.445296417291583424002965
3.856218990172539662353302 0.04731842983484085829459787 2.445296417291584312181385
3.851340785082579820652882 0.040592834583167314299601 2.441933619665747290383706
3.852681570165158664309502 0.009941071414993122440373341 2.443955632209004580346345
3.851340785082579376563672 -0.02071069175318106247996042 2.441933619665747290383706
4.307144942485797045605977 -0.03903603273185272948264668 2.446180975217649322672742
4.309301008416423606206536 -0.01334074896322008998983399 2.442361950435299355888219
4.307144942485797045605977 0.01235453480541254256408479 2.446180975217649322672742
4.325090139024593938188445 -0.03563126965880501761940735 2.414689610843424816266634
4.318508635625773806054895 -0.02799322009410431383313878 2.427537252727741012847673
4.312987229306900260894508 -0.04236195043529930592818289 2.437019554223810224868885
4.318508635625773806054895 0.02799322009410429995535097 2.427537252727741012847673
4.312987229306900260894508 0.04236195043529930592818289 2.437019554223809780779675
4.325090139024593938188445 0.03563126965880498986383174 2.414689610843424816266634
4.327985421532937415634024 -0.01483021329646504182786515 2.407184365170597750704928
4.324769258522364268060301 0.004134389695673286804766811 2.414368730341195146138489
4.327985421532937415634024 0.02309899268781163278463353 2.407184365170597306615718
4.31818775512354413592675 0.009028617101965948771313819 2.427216372225511342719528
4.314822414735297151366922 -0.002297936325471676508730434 2.432879648939230143867007
3.893253001556057135701394 -0.001664476642708449197899379 2.464248093455922550276682
3.896626500778028745486381 0.02492185824668186749919485 2.46837568924593009356272
3.896626500778028745486381 -0.02825081153209875808873797 2.46837568924593009356272
3.884838039201321979732029 -0.04325300155605699137240094 2.460874594233950496402485
3.884838039201321979732029 0.04325300155605697055571923 2.460874594233951384580905