/*--------------------------------*- C++ -*----------------------------------*\
| =========                 |                                                 |
| \\      /  F ield         | OpenFOAM: The Open Source CFD Toolbox           |
|  \\    /   O peration     | Version:  v2012                                 |
|   \\  /    A nd           | Website:  www.openfoam.com                      |
|    \\/     M anipulation  |                                                 |
\*---------------------------------------------------------------------------*/
FoamFile
{
    version     2.0;
    format      ascii;
    class       volScalarField;
    location    "1.5";
    object      alpha.water;
}
// * * * * * * * * * * * * * * * * * * * * * * * * * * * * * * * * * * * * * //

dimensions      [0 0 0 0 0 0 0];


internalField   nonuniform List<scalar> 
96000
(
0
0
0
0
0
0
0
0
0
0
0
0
0
0
0
0
0
0
0
0
0
0
0
0
0
0
0
0
0
0
0
0
0
0
0
0
0
0
0
0
0
0
0
0
0
0
0
0
0
0
0
0
0
0
0
0
0
0
0
0
0
0
0
0
0
0
0
0
0
0
0
0
0
0
0
0
0
0
0
0
0
0
0
0
0
0
0
0
0
0
0
0
0
0
0
0
0
0
0
0
0
0
0
0
0
0
0
0
0
0
0
0
0
0
0
0
0
0
0
0
0
0
0
0
0
0
0
0
0
0
0
0
0
0
0
0
0
0
0
0
0
0
0
0
0
0
0
0
0
0
0
0
0
0
0
0
0
0
0
0
0
0
0
0
0
0
0
0
0
0
0
0
0
0
0
0
0
0
0
0
0
0
0
0
0
0
0
0
0
0
0
0
0
0
0
0
0
0
0
0
0
0
0
0
0
0
0
0
0
0
0
0
0
0
0
0
0
0
0
0
0
0
0
0
0
0
0
0
0
0
0
0
0
0
0
0
0
0
0
0
0
0
0
0
0
0
0
0
0
0
0
0
0
0
0
0
0
0
0
0
0
0
0
0
0
0
0
0
0
0
0
0
0
0
0
0
0
0
0
0
0
0
0
0
0
0
0
0
0
0
0
0
0
0
0
0
0
0
0
0
0
0
0
0
0
0
0
0
0
0
0
0
0
0
0
0
0
0
0
0
0
0
0
0
0
0
0
0
0
0
0
0
0
0
0
0
0
0
0
0
0
0
0
0
0
0
0
0
0
0
0
0
0
0
0
0
0
0
0
0
0
0
0
0
0
0
0
0
0
0
0
0
0
0
0
0
0
0
0
0
0
0
0
0
0
0
0
0
0
0
0
0
0
0
0
0
0
0
0
0
0
0
0
0
0
0
0
0
0
0
0
0
0
0
0
0
0
0
0
0
0
0
0
0
0
0
0
0
0
0
0
0
0
0
0
0
0
0
0
0
0
0
0
0
0
0
0
0
0
0
0
0
0
0
0
0
0
0
0
0
0
0
0
0
0
0
0
0
0
0
0
0
0
0
0
0
0
0
0
0
0
0
0
0
0
0
0
0
0
0
0
0
0
0
0
0
0
0
0
0
0
0
0
0
0
0
0
0
0
0
0
0
0
0
0
0
0
0
0
0
0
0
0
0
0
0
0
0
0
0
0
0
0
0
0
0
0
0
0
0
0
0
0
0
0
0
0
0
0
0
0
0
0
0
0
0
0
0
0
0
0
0
0
0
0
0
0
0
0
0
0
0
0
0
0
0
0
0
0
0
0
0
0
0
0
0
0
0
0
0
0
0
0
0
0
0
0
0
0
0
0
0
0
0
0
0
0
0
0
0
0
0
0
0
0
0
0
0
0
0
0
0
0
0
0
0
0
0
0
0
0
0
0
0
0
0
0
0
0
0
0
0
0
0
0
0
0
0
0
0
0
0
0
0
0
0
0
0
0
0
0
0
0
0
0
0
0
0
0
0
0
0
0
0
0
0
0
0
0
0
0
0
0
0
0
0
0
0
0
0
0
0
0
0
0
0
0
0
0
0
0
0
0
0
0
0
0
0
0
0
0
0
0
0
0
0
0
0
0
0
0
0
0
0
0
0
0
0
0
0
0
0
0
0
0
0
0
0
0
0
0
0
0
0
0
0
0
0
0
0
0
0
0
0
0
0
0
0
0
0
0
0
0
0
0
0
0
0
0
0
0
0
0
0
0
0
0
0
0
0
0
0
0
0
0
0
0
0
0
0
0
0
0
0
0
0
0
0
0
0
0
0
0
0
0
0
0
0
0
0
0
0
0
0
0
0
0
0
0
0
0
0
0
0
0
0
0
0
0
0
0
0
0
0
0
0
0
0
0
0
0
0
0
0
0
0
0
0
0
0
0
0
0
0
0
0
0
0
0
0
0
0
0
0
0
0
0
0
0
0
0
0
0
0
0
0
0
0
0
0
0
0
0
0
0
0
0
0
0
0
0
0
0
0
0
0
0
0
0
0
0
0
0
0
0
0
0
0
0
0
0
0
0
0
0
0
0
0
0
0
0
0
0
0
0
0
0
0
0
0
0
0
0
0
0
0
0
0
0
0
0
0
0
0
0
0
0
0
0
0
0
0
0
0
0
0
0
0
0
0
0
0
0
0
0
0
0
0
0
0
0
0
0
0
0
0
0
0
0
0
0
0
0
0
0
0
0
0
0
0
0
0
0
0
0
0
0
0
0
0
0
0
0
0
0
0
0
0
0
0
0
0
0
0
0
0
0
0
0
0
0
0
0
0
0
0
0
0
0
0
0
0
0
0
0
0
0
0
0
0
0
0
0
0
0
0
0
0
0
0
0
0
0
0
0
0
0
0
0
0
0
0
0
0
0
0
0
0
0
0
0
0
0
0
0
0
0
0
0
0
0
0
0
0
0
0
0
0
0
0
0
0
0
0
0
0
0
0
0
0
0
0
0
0
0
0
0
0
0
0
0
0
0
0
0
0
0
0
0
0
0
0
0
0
0
0
0
0
0
0
0
0
0
0
0
0
0
0
0
0
0
0
0
0
0
0
0
0
0
0
0
0
0
0
0
0
0
0
0
0
0
0
0
0
0
0
0
0
0
0
0
0
0
0
0
0
0
0
0
0
0
0
0
0
0
0
0
0
0
0
0
0
0
0
0
0
0
0
0
0
0
0
0
0
0
0
0
0
0
0
0
0
0
0
0
0
0
0
0
0
0
0
0
0
0
0
0
0
0
0
0
0
0
0
0
0
0
0
0
0
0
0
0
0
0
0
0
0
0
0
0
0
0
0
0
0
0
0
0
0
0
0
0
0
0
0
0
0
0
0
0
0
0
0
0
0
0
0
0
0
0
0
0
0
0
0
0
0
0
0
0
0
0
0
0
0
0
0
0
0
0
0
0
0
0
0
0
0
0
0
0
0
0
0
0
0
0
0
0
0
0
0
0
0
0
0
0
0
0
0
0
0
0
0
0
0
0
0
0
0
0
0
0
0
0
0
0
0
0
0
0
0
0
0
0
0
0
0
0
0
0
0
0
0
0
0
0
0
0
0
0
0
0
0
0
0
0
0
0
0
0
0
0
0
0
0
0
0
0
0
0
0
0
0
0
0
0
0
0
0
0
0
0
0
0
0
0
0
0
0
0
0
0
0
0
0
0
0
0
0
0
0
0
0
0
0
0
0
0
0
0
0
0
0
0
0
0
0
0
0
0
0
0
0
0
0
0
0
0
0
0
0
0
0
0
0
0
0
0
0
0
0
0
0
0
0
0
0
0
0
0
0
0
0
0
0
0
0
0
0
0
0
0
0
0
0
0
0
0
0
0
0
0
0
0
0
0
0
0
0
0
0
0
0
0
0
0
0
0
0
0
0
0
0
0
0
0
0
0
0
0
0
0
0
0
0
0
0
0
0
0
0
0
0
0
0
0
0
0
0
0
0
0
0
0
0
0
0
0
0
0
0
0
0
0
0
0
0
0
0
0
0
0
0
0
0
0
0
0
0
0
0
0
0
0
0
0
0
0
0
0
0
0
0
0
0
0
0
0
0
0
0
0
0
0
0
0
0
0
0
0
0
0
0
0
0
0
0
0
0
0
0
0
0
0
0
0
0
0
0
0
0
0
0
0
0
0
0
0
0
0
0
0
0
0
0
0
0
0
0
0
0
0
0
0
0
0
0
0
0
0
0
0
0
0
0
0
0
0
0
0
0
0
0
0
0
0
0
0
0
0
0
0
0
0
0
0
0
0
0
0
0
0
0
0
0
0
0
0
0
0
0
0
0
0
0
0
0
0
0
0
0
0
0
0
0
0
0
0
0
0
0
0
0
0
0
0
0
0
0
0
0
0
0
0
0
0
0
0
0
0
0
0
0
0
0
0
0
0
0
0
0
0
0
0
0
0
0
0
0
0
0
0
0
0
0
0
0
0
0
0
0
0
0
0
0
0
0
0
0
0
0
0
0
0
0
0
0
0
0
0
0
0
0
0
0
0
0
0
0
0
0
0
0
0
0
0
0
0
0
0
0
0
0
0
0
0
0
0
0
0
0
0
0
0
0
0
0
0
0
0
0
0
0
0
0
0
0
0
0
0
0
0
0
0
0
0
0
0
0
0
0
0
0
0
0
0
0
0
0
0
0
0
0
0
0
0
0
0
0
0
0
0
0
0
0
0
0
0
0
0
0
0
0
0
0
0
0
0
0
0
0
0
0
0
0
0
0
0
0
0
0
0
0
0
0
0
0
0
0
0
0
0
0
0
0
0
0
0
0
0
0
0
0
0
0
0
0
0
0
0
0
0
0
0
0
0
0
0
0
0
0
0
0
0
0
0
0
0
0
0
0
0
0
0
0
0
0
0
0
0
0
0
0
0
0
0
0
0
0
0
0
0
0
0
0
0
0
0
0
0
0
0
0
0
0
0
0
0
0
0
0
0
0
0
0
0
0
0
0
0
0
0
0
0
0
0
0
0
0
0
0
0
0
0
0
0
4.684597929947668569315392e-50
6.974066122105435058476996e-48
5.053035127183144243293318e-46
2.394896588673937619840701e-44
7.917342275310606550402438e-43
1.782673766344856595885609e-41
3.59697821932883105560328e-40
9.942210794231162621083481e-39
3.298722283473465722400681e-37
8.430686814677243384905611e-36
2.115606923567961419409236e-34
2.656043805830753820615654e-33
1.165516721247942301872266e-27
1.355874681920385641668666e-27
1.481041786635839977567265e-27
1.59993159886658202195415e-27
1.723568432512966408347382e-27
1.855054346102646916362096e-27
1.996237232296082769159689e-27
2.147398934415376321151852e-27
2.304697474589913754762038e-27
2.468831425769290425526891e-27
2.668269544199697394883112e-27
2.953146200835209609370765e-27
3.234860249178296193909636e-27
3.314843879281373022711278e-27
3.315778351752274896081124e-27
3.310932628096745743889298e-27
3.297204849537727039880575e-27
3.273991267755659707894169e-27
3.242546967233465699439335e-27
3.201851587403521144520671e-27
3.153994272154875174092087e-27
3.117013970038029948662153e-27
3.103898597715004284722385e-27
3.101590466336156213096762e-27
3.10092389401474717579053e-27
3.100210186320116383561659e-27
3.098391611596686236859028e-27
3.093102801139860997866832e-27
3.080427147460815630711034e-27
3.056271785725015459802735e-27
3.018211400372469435938866e-27
2.965872483797853373655359e-27
2.899556736725316496093969e-27
2.819129112117191629917728e-27
2.724916314505006270991583e-27
2.619801640344467229018379e-27
2.509058261719515998340238e-27
2.395495672795304701573683e-27
2.27370139171661313847245e-27
2.128388572563627017914398e-27
1.936996086493083164971044e-27
1.678454627289478487352138e-27
1.352636928203412924524437e-27
1.008357650091656730650423e-27
7.420257539740013473304878e-28
6.018120913761012237479865e-28
5.356205192364968322172808e-28
4.823018383108496822791708e-28
3.982454037486466407525263e-28
2.711252205567798301570728e-28
2.037938353995110417042799e-28
2.006182957835495506764003e-28
2.111004481666006440604255e-28
2.835574611501485507066783e-28
5.991454491924528359661083e-28
1.742569886712573347808672e-27
5.426485586117205820683992e-27
1.639326754829519436732e-26
4.507908877023409647493031e-26
1.248567868022028297578758e-25
2.494894058029540347072736e-25
3.358713840358212939683561e-24
1.606826950988404602503556e-23
2.671403891834020586786146e-23
2.531703109573649867956412e-23
1.519426233909248587973185e-23
3.196096773599070876453888e-24
1.194285782077086430751964e-25
3.549350888750450996520939e-28
3.965201267139530223761618e-32
6.523381106538950776341298e-37
1.012845586205510829605559e-41
1.651624327798231364327403e-46
2.77115916306858060420234e-51
4.273100573953509240741616e-56
5.952829684388352880449883e-61
7.862247692252040482609047e-66
1.025749375752516191737715e-70
1.318153436849943496435706e-75
1.61169742547807964157757e-80
1.842206604206940537626353e-85
1.996272562877430560857232e-90
2.084217706942941482277085e-95
2.081884982449491355642336e-100
1.949657940479262161507006e-105
1.691210390222145788919838e-110
1.366687280146248369951537e-115
1.042488544852332438224511e-120
7.527040615632009738954321e-126
5.093681795848306071410547e-131
3.203793439372958570997796e-136
1.879135446550814821090242e-141
1.035128226797115439784913e-146
1.550982776679742507246321e-149
1.518342198439483492093352e-150
1.825520407584507347974716e-151
2.195749801790255434364417e-152
2.397423627051412145044805e-153
2.504048226204196126931586e-154
2.543298831856675873734693e-155
2.535710898040576698334689e-156
2.51064559453383696979093e-157
2.483932980495836193727766e-158
2.461782870396194186993948e-159
2.447167483727464733371396e-160
2.441854679321263111888967e-161
2.447459205203288715549055e-162
2.465931419797194394568462e-163
2.500387955997553837160811e-164
2.55728891047444082682139e-165
2.651980153473363329402338e-166
2.823388883260301690764849e-167
3.173348102313457135149404e-168
3.970851750636625046407999e-169
5.924703603303479675972921e-170
1.088595640453621746687368e-170
2.36289459903236973151491e-171
5.62916604467531984351212e-172
1.392542229383613175930482e-172
3.473161542159236881723588e-173
8.615483435409030888917822e-174
2.112764698160606178622974e-174
5.108185792482473374400665e-175
1.216142760767280945207648e-175
2.849347258345809733441821e-176
6.567840764970725509223354e-177
1.48921167613660419408878e-177
3.321414263847534133485354e-178
7.286510256104097290450755e-179
1.572374755907381108049247e-179
3.337727380300196425898927e-180
6.969921738815463877752835e-181
1.431907172950247949533172e-181
2.894289483995347889631191e-182
5.756269286913073201413425e-183
1.126536397760875543488994e-183
2.169641124785228904693262e-184
4.112472042253839111318812e-185
7.672276195156680976126113e-186
1.408916861407655402362579e-186
2.546945718474774610347659e-187
4.532732215794116278764326e-188
7.942163326239498319361251e-189
1.370211670474953942773258e-189
2.327757137397977709656103e-190
3.894208384085808835928704e-191
6.415963035632350401477154e-192
1.041105022586535297076921e-192
1.663969504287757938479101e-193
2.619640208041866466485153e-194
4.062654992427925795731676e-195
6.206917973040745515515248e-196
9.342536550566090443532617e-197
1.385480832546848159207117e-197
2.024447646931299250594498e-198
2.914778147790286403396737e-199
4.135416202569833991795448e-200
5.781876084832186614684656e-201
7.96662685692311205930037e-202
1.081822138939116416582672e-202
1.447877265844650186709163e-203
1.909942052187404811857517e-204
2.483353358183182871728335e-205
3.182755964780566396982115e-206
4.020967287519696742171185e-207
5.007665308800834695705649e-208
6.147974818107657031087085e-209
7.441057751356003679570438e-210
8.878838815063838649348716e-211
1.044501289732369823850557e-211
1.211448165636554491194456e-212
1.385335002394018974566311e-213
1.561957804842344479266926e-214
1.736433097217898477397042e-215
1.903400489626801376819175e-216
2.057283356555944252758082e-217
2.19259122528002072788666e-218
2.30424166662225089713986e-219
2.387875680800198515748595e-220
2.440139425221932906303543e-221
2.458906963112337951061726e-222
2.4434234504111854438423e-223
2.394355347084631057109512e-224
2.313743012913256292269206e-225
2.204860368739162048174699e-226
2.071995035696870624210112e-227
1.920169460632628235961169e-228
1.754828191381010235235136e-229
1.581518228489942987733102e-230
1.405588200684017671604183e-231
1.23192832760620182048416e-232
1.064767395957679276543536e-233
9.075361303996702610974488e-235
7.627992931643232390619202e-236
6.322524265389478103697014e-237
5.167740095114030164253209e-238
4.165203356838564718149623e-239
3.310487679861284994604735e-240
2.594550750328338047188317e-241
2.005120019811806335778974e-242
1.52798656535058318129947e-243
1.148132402550680000733377e-244
8.506469786853461726553618e-246
6.214164400179354627017572e-247
4.475921710750937354186595e-248
3.178617872796841673962107e-249
2.225560087102305485027501e-250
1.536292429296502603223533e-251
1.045513739639844579324264e-252
7.01445492517066818651079e-254
4.639303615359033940328669e-255
3.024767499642407304236246e-256
1.944000991315837000954008e-257
1.231545541235093975026694e-258
7.690197293245305041757505e-260
4.733040955565880805061421e-261
2.871050508330275015302803e-262
1.716407670656492805086284e-263
1.011252446412161847409985e-264
5.871349638321102642798361e-266
3.359188820760433207327101e-267
1.893769359703028121243099e-268
1.051945411537148641069394e-269
5.757171650074902608957448e-271
3.104206154946147685788945e-272
1.648891215366737455685514e-273
8.627943554740433598200957e-275
4.447022064341077900999446e-276
2.257615049586924895548989e-277
1.128808005315509091915773e-278
5.558400520543899047821607e-280
2.695306422858323169735488e-281
1.286953829693741725733642e-282
6.050359887061760198313732e-284
2.800455680900943638321875e-285
1.276057322778876633988026e-286
5.723599610337040551556736e-288
2.526901555037236870609015e-289
1.097965404621409610088946e-290
4.694942304614379288639891e-292
1.975476574891279594843603e-293
8.178449629801757663974644e-295
3.331069345658541579364285e-296
1.33464172121163911565886e-297
5.259777525295502130711377e-299
2.038654212646460803730404e-300
7.770404566239403543947288e-302
2.912167538199102599445717e-303
1.073022758544947513431344e-304
3.886573523436676128502574e-306
1.383674790385695976258784e-307
4.841192891479212037011359e-309
1.664417047495449410524787e-310
5.622139542193024999700208e-312
1.86555086798710886479533e-313
6.08012969169622625090772e-315
1.946037326975614573371803e-316
6.115791597045870347089657e-318
1.88738017367814592340891e-319
5.765746086967347170540558e-321
1.630416631276113595782677e-322
0
0
0
0
0
0
0
0
0
0
0
0
0
0
0
0
0
0
0
0
0
0
0
0
0
0
0
0
0
0
0
0
0
0
0
0
0
0
0
0
0
0
0
0
0
0
0
0
0
0
0
0
0
0
0
0
0
0
0
0
0
0
0
0
0
0
0
0
0
0
0
0
0
0
0
0
0
0
0
0
0
0
0
0
0
0
0
0
0
0
0
0
0
0
0
0
0
0
0
0
0
0
0
0
0
0
0
0
0
0
0
0
0
0
0
0
0
0
0
0
0
0
0
0
0
0
1.143587349517774794805934e-50
6.351633370499520885764658e-48
8.042368919994683788443847e-46
5.387823747132168863604746e-44
2.447606484421503430521421e-42
8.338428012577576343345144e-41
2.108609202502995072286329e-39
4.241323551376459596202327e-38
8.222068626597311195810509e-37
1.891017326838024825917842e-35
4.381189987258541605048769e-34
1.15759268706460792131092e-32
1.637686830650257621732712e-31
4.667619771642092160963358e-26
5.860950630305381096626868e-26
6.775567341539366148832744e-26
7.706751589315743907933327e-26
8.718998276326486161378325e-26
9.834686881701271243358007e-26
1.10673178463323536259528e-25
1.242604626115042064237123e-25
1.39176141775260375871875e-25
1.556444897558142785019881e-25
1.741931060459218185645156e-25
1.950383562535709294231078e-25
2.17025888873858380068792e-25
2.386104316690516077679179e-25
2.596017085869072080611633e-25
2.803015467075860276688813e-25
3.000956955551274162073044e-25
3.187479361162172295934048e-25
3.399955110619851465742148e-25
3.740405968008007741851275e-25
4.274623434457450110377517e-25
4.635686354752940514865513e-25
4.676798918573606536818457e-25
4.672851909448556335183559e-25
4.651151475116245135285785e-25
4.592190421159014259959008e-25
4.491848424004124384415679e-25
4.393438227910587274060426e-25
4.339938499117953726396647e-25
4.314176551412693541199469e-25
4.292211733911082416808107e-25
4.260080405701651270529522e-25
4.203638082921730075657039e-25
4.107229952870640990290291e-25
3.95929111179326793149461e-25
3.758412147782797916301159e-25
3.509062087771786075861098e-25
3.208202846158553696196871e-25
2.842604565843401175975734e-25
2.413204445183091580567235e-25
1.969539700813985106569566e-25
1.584151230884561900602742e-25
1.279660260490845120882401e-25
1.037713778944387848191297e-25
8.51837793885059232078934e-26
7.190285881491073889315835e-26
6.070526657511904139832893e-26
4.720138301929432474283684e-26
3.356133915142977657482864e-26
2.926333770757093261748625e-26
2.93159032598886224589059e-26
3.174138748082761199477208e-26
4.610864114005474840663309e-26
1.063658867493691059489597e-25
3.191463121402663411231265e-25
9.881498234061405784416814e-25
2.888828696273917524261585e-24
7.821465140147699901087526e-24
1.890634936100410407330695e-23
4.418632923386256180339307e-23
7.411830078822314864701965e-23
5.150442546894844132787864e-22
1.514816522127943120280758e-21
1.691472694611345236838908e-21
1.282268748998401817125923e-21
4.053108139587303615014749e-22
2.628609662518050542635662e-23
1.549034300331633801810117e-25
4.913000305535029787012728e-29
1.637926971123169659132459e-33
3.854086775171499162883533e-38
8.205997290660886301472829e-43
1.669659489775774156997754e-47
3.067508678231825195122589e-52
5.038554044606089057586977e-57
7.710990764813187788228282e-62
1.14117752393421131580469e-66
1.631665852222629166070352e-71
2.195478594723195481435568e-76
2.748345597189358328498634e-81
3.245060295015240542992874e-86
3.661990767363689803427835e-91
3.921181339621841546546177e-96
3.915039548466185878544035e-101
3.611806554693570591088078e-106
3.098622454085046774894779e-111
2.501008663610715210205444e-116
1.902468875361179715966279e-121
1.351886586244928060281349e-126
8.915639383864036670458021e-132
5.476562936185936562480461e-137
3.15011342383421241050131e-142
1.698569764407878660504579e-147
1.1565577607930136959023e-149
1.268048336133544222915452e-150
1.784800941889755174922719e-151
2.213185300103457510151372e-152
2.566201729183602799242361e-153
2.868744983732341638393683e-154
3.118636473693703166757296e-155
3.340204771347209815849168e-156
3.553586585081939176660927e-157
3.768486908778882208293769e-158
3.991728769650129950417103e-159
4.229166656115951521034607e-160
4.487110919738707962559466e-161
4.774054796721109905843428e-162
5.104415377002197244326282e-163
5.508702757188232739841423e-164
6.061345100447603296566781e-165
6.957670829908572351981923e-166
8.726000690643923157241254e-167
1.280479767307984919152871e-167
2.308993687659214132883965e-168
5.001634490428419369305826e-169
1.211437102413576059894699e-169
3.081302579318504935564429e-170
7.94232385630148351266037e-171
2.040135284008260137934177e-171
5.183845141860563584755166e-172
1.298709838066906757671564e-172
3.203340963976925318814764e-173
7.773759324055807904382693e-174
1.855490181974422968920338e-174
4.355368720417394128844391e-175
1.005330296741347841681382e-175
2.281977849270843341069313e-176
5.093866006658225602557679e-177
1.118253110948861312299904e-177
2.414447603682656544114537e-178
5.127583343046816259695804e-179
1.071172804252098642242096e-179
2.201376572657802233771764e-180
4.450964973712526284732078e-181
8.854755117909167377048044e-182
1.73340129906836586843744e-182
3.339330400490304483036903e-183
6.331324873001109952723677e-184
1.181521194256568805445144e-184
2.170382935830156932611521e-185
3.924774705415979183768429e-186
6.987333909852849485392004e-187
1.22478765839559313689523e-187
2.113956274321026199547631e-188
3.592937346119940698608021e-189
6.013862043039667458758091e-190
9.913758716456215264525724e-191
1.609660720637989338130541e-191
2.574368272036403382220043e-192
4.055792172250094171447656e-193
6.294727364463905906605795e-194
9.625007072080960882129048e-195
1.450019845239923874715256e-195
2.152388305433720157414773e-196
3.148221692052595435244241e-197
4.537654295313603178079132e-198
6.445276184475360166914996e-199
9.022305090818501926919059e-200
1.244744971626801307422744e-200
1.692584743879706735258022e-201
2.268543692097684251128226e-202
2.997017808492444409284176e-203
3.902967831620703303767699e-204
5.010503673789650273992867e-205
6.341107735959567732899316e-206
7.911558945032969405292656e-207
9.731669315560491629020943e-208
1.180199452940406762580646e-208
1.411172252864067864290666e-209
1.663697187668647505970455e-210
1.933973756676368908417061e-211
2.216770067878627862984084e-212
2.505506739718401205137575e-213
2.792452390595741911115669e-214
3.069029242831162501162764e-215
3.326216014169092932093012e-216
3.555023996309874818927771e-217
3.747012482222660885893811e-218
3.894802894844111838255966e-219
3.992548197517601599495808e-220
4.036316061570449819579827e-221
4.024350852375024417784724e-222
3.957190152422083979533404e-223
3.837625072341068079107707e-224
3.670508398893538492147572e-225
3.462428902401346382017633e-226
3.221282166607002215122624e-227
2.955776733499306103152245e-228
2.674918316850062421463201e-229
2.387514097205762161781639e-230
2.101734058154924897582484e-231
1.824757877482408621303937e-232
1.562525324031912843479618e-233
1.319596855889597481486248e-234
1.09912052652658315995959e-235
9.028924957984690422583678e-237
7.314921575743163737571644e-238
5.84469461704828808644131e-239
4.605613503038340409690891e-240
3.579159450334318926579239e-241
2.743065936098614341380388e-242
2.073223945368286469028402e-243
1.545266704768409345984997e-244
1.135794591660248513746996e-245
8.232400283504394585031251e-247
5.884018951860109873385121e-248
4.146984988013111522893555e-249
2.881979821862269909367248e-250
1.974867988792108322974801e-251
1.334325491774213720649409e-252
8.888926392239562311859338e-254
5.838310614279426739385082e-255
3.780604900171197408926824e-256
2.413552441355353743637817e-257
1.519000658365241401152255e-258
9.4242903789387061685278e-260
5.76383833804173269847571e-261
3.474798068852185277831831e-262
2.064825956473503898867e-263
1.20935584655392290698871e-264
6.981061057850477263167687e-266
3.971591085854000690904849e-267
2.22669974312257663770911e-268
1.230241237270976325493264e-269
6.697720103242034908529006e-271
3.592919962650295693910255e-272
1.899007969376617612887878e-273
9.888688408143085357872273e-275
5.072900059017406204661743e-276
2.563608720997921095473454e-277
1.276133613944131758090185e-278
6.256907077183023834116414e-280
3.021423366935122875769886e-281
1.436878115061358050834675e-282
6.729020328302034862553081e-284
3.102939674039866802350394e-285
1.40879992417281031917272e-286
6.297143382577013305782318e-288
2.770886495935137361459611e-289
1.200151861103229044473702e-290
5.116302047357980372536262e-292
2.14653307522299208089878e-293
8.862128880624935145293723e-295
3.600094498865672601487985e-296
1.438864904023194201758519e-297
5.657309221792625394783947e-299
2.187941119604696617182447e-300
8.322382769842975257560015e-302
3.113114226112221285894003e-303
1.145051717407625103648802e-304
4.140793063446424241149904e-306
1.472022045467015008864682e-307
5.143510977622193073928263e-309
1.766281687959930378286573e-310
5.960101615911348017309753e-312
1.975955934110910119419934e-313
6.435246459545983568010072e-315
2.058494128360334489649207e-316
6.466326232113776357717491e-318
1.994394792567359924877555e-319
6.012778909887970442628842e-321
1.630416631276113595782677e-322
0
0
0
0
0
0
0
0
0
0
0
0
0
0
0
0
0
0
0
0
0
0
0
0
0
0
0
0
0
0
0
0
0
0
0
0
0
0
0
0
0
0
0
0
0
0
0
0
0
0
0
0
0
0
0
0
0
0
0
0
0
0
0
0
0
0
0
0
0
0
0
0
0
0
0
0
0
0
0
0
0
0
0
0
0
0
0
0
0
0
0
0
0
0
0
0
0
0
0
0
0
0
0
0
0
0
0
0
0
0
0
0
0
0
0
0
0
0
0
0
0
0
0
0
1.833798701340455175469781e-51
1.078585648424348163469999e-48
3.324179553806925860801008e-46
3.813017548458379229509627e-44
2.489116769025597515901454e-42
1.124357180402951055031376e-40
3.834494645439219228709429e-39
9.978063640888314928057987e-38
2.100102310909324115599709e-36
3.778506780117337707269885e-35
6.717204886660398794224561e-34
1.218617073803285828345369e-32
3.100347627178061383670492e-31
4.790762970378489526576975e-30
8.11997588334890386776317e-25
1.076417624909245536605868e-24
1.302310416136373112590326e-24
1.547625953156164783996832e-24
1.828128279964147409965629e-24
2.151711501417126375771235e-24
2.524859522384218628580383e-24
2.954027755483764820880023e-24
3.446391540633465326486663e-24
4.011216319072092635251436e-24
4.659399608843727692811472e-24
5.397925971262592108979236e-24
6.22534364610582726471291e-24
7.138590830429927800990213e-24
8.140853322049056900913381e-24
9.230061149938077211156568e-24
1.038562011133808935767767e-23
1.160963973044616195386265e-23
1.30124479180623238891036e-23
1.48218416291124411201129e-23
1.713370576434978220395396e-23
1.947513260636697025242541e-23
2.120224805430101322059898e-23
2.238881808145059235102378e-23
2.348268604794430691425645e-23
2.444745726031364280304855e-23
2.473031293804945684979844e-23
2.473116322741628797091804e-23
2.471560505197996260512058e-23
2.467751631307900052787532e-23
2.459670129907842094691186e-23
2.444221719729365009377628e-23
2.417602628451690176882938e-23
2.375033448594352800454541e-23
2.310785968313107417823116e-23
2.216428747151133641825514e-23
2.075621236019252517388689e-23
1.860842680262402140732957e-23
1.554757601534947077993469e-23
1.211404770535770437162723e-23
9.415070934597589579746303e-24
7.716835100703297212756743e-24
6.516237419932620231413074e-24
5.460140292757257625549926e-24
4.497313264048274934393538e-24
3.614640416444114558987593e-24
2.704347756409544250499216e-24
1.974919752276466224156449e-24
1.788866850520812651634133e-24
1.796198392410607423065795e-24
1.943538288513218783410009e-24
2.806742549734000773671284e-24
6.481937403345843749942959e-24
1.968918420982937431131062e-23
6.173715349798901045304093e-23
1.818903660658108323972375e-22
4.889637736596160072445833e-22
1.184396359769011069773485e-21
2.50590450163935591853237e-21
4.839382382041999463970211e-21
6.837044012184597143618225e-21
2.986972871568099633030324e-20
5.258493716874600744517262e-20
4.707800126425015412281063e-20
2.139171181048035769918473e-20
2.283347099014257985617319e-21
2.406353484393901033157102e-23
1.45884778644739403495035e-26
3.406596173576739103592226e-31
6.14673559292595652631441e-36
1.306739297705860045333303e-40
3.127417885866503375910225e-45
6.996238744534617592612832e-50
1.425216269164937176370598e-54
2.777951392849362359956901e-59
5.231621343345904054165552e-64
9.15397236661541205265847e-69
1.430526607660396054635413e-73
2.024929031161876417975845e-78
2.71010573404357263522094e-83
3.460992431196460187080475e-88
4.095892847884268004484613e-93
4.383349323369152535823165e-98
4.258229917549142176176013e-103
3.851954855535570283493739e-108
3.298710848355510287503484e-113
2.646624085837420191625142e-118
1.95138359411400360933954e-123
1.319686391559961020053021e-128
8.317147920936871042031227e-134
4.91708613800951167160448e-139
2.674758262674362794608081e-144
3.116000831339639640099242e-149
4.369806063596594945185789e-150
6.95583117994565760585418e-151
9.471900155455610529414748e-152
1.228987146164664897058973e-152
1.519798943895866494853183e-153
1.810659214837876345584266e-154
2.112283940635157827049015e-155
2.432045256925371280614497e-156
2.775317996863325799662812e-157
3.147699144218690135919741e-158
3.555719743733460377930863e-159
4.008441427057842755217882e-160
4.520538103742626428993244e-161
5.120852153099676232745268e-162
5.877033500312862387912082e-163
6.966170423949271205313694e-164
8.876807924564698662769629e-165
1.298096904194977288957955e-165
2.313075433721065408082283e-166
5.004311264223844879430626e-167
1.231365339233762069965275e-167
3.219185598717320466867204e-168
8.577054964616527942232063e-169
2.282459012034398279991164e-169
6.012519386605174819451795e-170
1.561740308793016337773191e-170
3.993152265791756776162816e-171
1.004254715954816126473009e-171
2.483380513065012254388382e-172
6.037423267080515838023354e-173
1.44294770995329747646726e-173
3.3903594430011173585626e-174
7.83170876816515216698929e-175
1.778733592077143719627105e-175
3.972301773841135350675448e-176
8.723431293400692333679818e-177
1.884019052647301415520863e-177
4.001994414548355580326305e-178
8.36184402330026000416858e-179
1.71871355674683169915291e-179
3.475539600831668175230847e-180
6.91511587429797373221617e-181
1.35386670854945063674512e-181
2.608505486116755395621819e-182
4.94636880291205384050084e-183
9.232065456171616301466483e-184
1.696160074266617026917495e-184
3.067803020257654532005552e-185
5.462821315204933045047878e-186
9.577909544828299574038331e-187
1.653571929695709979682137e-187
2.811302466329017341563456e-188
4.707136135878529741178162e-189
7.76251247989741069747253e-190
1.260883564524483049195498e-190
2.017458557001418863718401e-191
3.179949142330605507291472e-192
4.937984229893974663137195e-193
7.554754815806769743250077e-194
1.13882898254503671172242e-194
1.691568394333939986707786e-195
2.475928695764627507373016e-196
3.571313672686013211781364e-197
5.076707016142339819762213e-198
7.112504964171013772176509e-199
9.821340783026622355370343e-200
1.336740922968368900627757e-200
1.793377612911671741779375e-201
2.371719296804763914750817e-202
3.092004537659383723833416e-203
3.973925807961664547560259e-204
5.035225812880535159956956e-205
6.290045064122478092224104e-206
7.747105944476015157377503e-207
9.407858665614056098753649e-208
1.126474960864528171675335e-208
1.329979653207773452496991e-209
1.548366227241519511749149e-210
1.777540433913652167792948e-211
2.012303995609528816160309e-212
2.24650054057211568432592e-213
2.473250922464735662964112e-214
2.685268844815188965338572e-215
2.875238589962259560781463e-216
3.036228603592578652374766e-217
3.16210883899751983096367e-218
3.247937046627870978678496e-219
3.29028016914724657018493e-220
3.287441761449140774055298e-221
3.239574476791538551726243e-222
3.148667249802652758056581e-223
3.01840861711313396829096e-224
2.853939224984011158620971e-225
2.661516592179946747127261e-226
2.448122472125967401389847e-227
2.221046933280700548252957e-228
1.987483282270773833251926e-229
1.754164425266249304668202e-230
1.527064872247739922217913e-231
1.311184319992014574143856e-232
1.11041973309958210063913e-233
9.275241838123406213150081e-235
7.6414334222476375563321e-236
6.209150800854389493301429e-237
4.976144840187418590589591e-238
3.933256619043600110345305e-239
3.066227895028059430641737e-240
2.357454126078662666781577e-241
1.78756528203436355906607e-242
1.336758493987697753662258e-243
9.85844189360497709731158e-245
7.170000187140666223076489e-246
5.142522941649864880515812e-247
3.637219186708895499971929e-248
2.536811513282373960500255e-249
1.744701300244170424340673e-250
1.183194461098030424154461e-251
7.911897584088730354734867e-253
5.216525298964219658395075e-254
3.391127108758658350332532e-255
2.173472597314627732054359e-256
1.373397248810085344219291e-257
8.555667903847571723365924e-259
5.254247400962519203646053e-260
3.180887775403297883858747e-261
1.898230879468901193233163e-262