/*--------------------------------*- C++ -*----------------------------------*\
| =========                 |                                                 |
| \\      /  F ield         | OpenFOAM: The Open Source CFD Toolbox           |
|  \\    /   O peration     | Version:  v2012                                 |
|   \\  /    A nd           | Website:  www.openfoam.com                      |
|    \\/     M anipulation  |                                                 |
\*---------------------------------------------------------------------------*/
FoamFile
{
    version     2.0;
    format      ascii;
    class       volScalarField;
    location    "1.1";
    object      alpha.water;
}
// * * * * * * * * * * * * * * * * * * * * * * * * * * * * * * * * * * * * * //

dimensions      [0 0 0 0 0 0 0];


internalField   nonuniform List<scalar> 
96000
(
0
0
0
0
0
0
0
0
0
0
0
0
0
0
0
0
0
0
0
0
0
0
0
0
0
0
0
0
0
0
0
0
0
0
0
0
0
0
0
0
0
0
0
0
0
0
0
0
0
0
0
0
0
0
0
0
0
0
0
0
0
0
0
0
0
0
0
0
0
0
0
0
0
0
0
0
0
0
0
0
0
0
0
0
0
0
0
0
0
0
0
0
0
0
0
0
0
0
0
0
0
0
0
0
0
0
0
0
0
0
0
0
0
0
0
0
0
0
0
0
0
0
0
0
0
0
0
0
0
0
0
0
0
0
0
0
0
0
0
0
0
0
0
0
0
0
0
0
0
0
0
0
0
0
0
0
0
0
0
0
0
0
0
0
0
0
0
0
0
0
0
0
0
0
0
0
0
0
0
0
0
0
0
0
0
0
0
0
0
0
0
0
0
0
0
0
0
0
0
0
0
0
0
0
0
0
0
0
0
0
0
0
0
0
0
0
0
0
0
0
0
0
0
0
0
0
0
0
0
0
0
0
0
0
0
0
0
0
0
0
0
0
0
0
0
0
0
0
0
0
0
0
0
0
0
0
0
0
0
0
0
0
0
0
0
0
0
0
0
0
0
0
0
0
0
0
0
0
0
0
0
0
0
0
0
0
0
0
0
0
0
0
0
0
0
0
0
0
0
0
0
0
0
0
0
0
0
0
0
0
0
0
0
0
0
0
0
0
0
0
0
0
0
0
0
0
0
0
0
0
0
0
0
0
0
0
0
0
0
0
0
0
0
0
0
0
0
0
0
0
0
0
0
0
0
0
0
0
0
0
0
0
0
0
0
0
0
0
0
0
0
0
0
0
0
0
0
0
0
0
0
0
0
0
0
0
0
0
0
0
0
0
0
0
0
0
0
0
0
0
0
0
0
0
0
0
0
0
0
0
0
0
0
0
0
0
0
0
0
0
0
0
0
0
0
0
0
0
0
0
0
0
0
0
0
0
0
0
0
0
0
0
0
0
0
0
0
0
0
0
0
0
0
0
0
0
0
0
0
0
0
0
0
0
0
0
0
0
0
0
0
0
0
0
0
0
0
0
0
0
0
0
0
0
0
0
0
0
0
0
0
0
0
0
0
0
0
0
0
0
0
0
0
0
0
0
0
0
0
0
0
0
0
0
0
0
0
0
0
0
0
0
0
0
0
0
0
0
0
0
0
0
0
0
0
0
0
0
0
0
0
0
0
0
0
0
0
0
0
0
0
0
0
0
0
0
0
0
0
0
0
0
0
0
0
0
0
0
0
0
0
0
0
0
0
0
0
0
0
0
0
0
0
0
0
0
0
0
0
0
0
0
0
0
0
0
0
0
0
0
0
0
0
0
0
0
0
0
0
0
0
0
0
0
0
0
0
0
0
0
0
0
0
0
0
0
0
0
0
0
0
0
0
0
0
0
0
0
0
0
0
0
0
0
0
0
0
0
0
0
0
0
0
0
0
0
0
0
0
0
0
0
0
0
0
0
0
0
0
0
0
0
0
0
0
0
0
0
0
0
0
0
0
0
0
0
0
0
0
0
0
0
0
0
0
0
0
0
0
0
0
0
0
0
0
0
0
0
0
0
0
0
0
0
0
0
0
0
0
0
0
0
0
0
0
0
0
0
0
0
0
0
0
0
0
0
0
0
0
0
0
0
0
0
0
0
0
0
0
0
0
0
0
0
0
0
0
0
0
0
0
0
0
0
0
0
0
0
0
0
0
0
0
0
0
0
0
0
0
0
0
0
0
0
0
0
0
0
0
0
0
0
0
0
0
0
0
0
0
0
0
0
0
0
0
0
0
0
0
0
0
0
0
0
0
0
0
0
0
0
0
0
0
0
0
0
0
0
0
0
0
0
0
0
0
0
0
0
0
0
0
0
0
0
0
0
0
0
0
0
0
0
0
0
0
0
0
0
0
0
0
0
0
0
0
0
0
0
0
0
0
0
0
0
0
0
0
0
0
0
0
0
0
0
0
0
0
0
0
0
0
0
0
0
0
0
0
0
0
0
0
0
0
0
0
0
0
0
0
0
0
0
0
0
0
0
0
0
0
0
0
0
0
0
0
0
0
0
0
0
0
0
0
0
0
0
0
0
0
0
0
0
0
0
0
0
0
0
0
0
0
0
0
0
0
0
0
0
0
0
0
0
0
0
0
0
0
0
0
0
0
0
0
0
0
0
0
0
0
0
0
0
0
0
0
0
0
0
0
0
0
0
0
0
0
0
0
0
0
0
0
0
0
0
0
0
0
0
0
0
0
0
0
0
0
0
0
0
0
0
0
0
0
0
0
0
0
0
0
0
0
0
0
0
0
0
0
0
0
0
0
0
0
0
0
0
0
0
0
0
0
0
0
0
0
0
0
0
0
0
0
0
0
0
0
0
0
0
0
0
0
0
0
0
0
0
0
0
0
0
0
0
0
0
0
0
0
0
0
0
0
0
0
0
0
0
0
0
0
0
0
0
0
0
0
0
0
0
0
0
0
0
0
0
0
0
0
0
0
0
0
0
0
0
0
0
0
0
0
0
0
0
0
0
0
0
0
0
0
0
0
0
0
0
0
0
0
0
0
0
0
0
0
0
0
0
0
0
0
0
0
0
0
0
0
0
0
0
0
0
0
0
0
0
0
0
0
0
0
0
0
0
0
0
0
0
0
0
0
0
0
0
0
0
0
0
0
0
0
0
0
0
0
0
0
0
0
0
0
0
0
0
0
0
0
0
0
0
0
0
0
0
0
0
0
0
0
0
0
0
0
0
0
0
0
0
0
0
0
0
0
0
0
0
0
0
0
0
0
0
0
0
0
0
0
0
0
0
0
0
0
0
0
0
0
0
0
0
0
0
0
0
0
0
0
0
0
0
0
0
0
0
0
0
0
0
0
0
0
0
0
0
0
0
0
0
0
0
0
0
0
0
0
0
0
0
0
0
0
0
0
0
0
0
0
0
0
0
0
0
0
0
0
0
0
0
0
0
0
0
0
0
0
0
0
0
0
0
0
0
0
0
0
0
0
0
0
0
0
0
0
0
0
0
0
0
0
0
0
0
0
0
0
0
0
0
0
0
0
0
0
0
0
0
0
0
0
0
0
0
0
0
0
0
0
0
0
0
0
0
0
0
0
0
0
0
0
0
0
0
0
0
0
0
0
0
0
0
0
0
0
0
0
0
0
0
0
0
0
0
0
0
0
0
0
0
0
0
0
0
0
0
0
0
0
0
0
0
0
0
0
0
0
0
0
0
0
0
0
0
0
0
0
0
0
0
0
0
0
0
0
0
0
0
0
0
0
0
0
0
0
0
0
0
0
0
0
0
0
0
0
0
0
0
0
0
0
0
0
0
0
0
0
0
0
0
0
0
0
0
0
0
0
0
0
0
0
0
0
0
0
0
0
0
0
0
0
0
0
0
0
0
0
0
0
0
0
0
0
0
0
0
0
0
0
0
0
0
0
0
0
0
0
0
0
0
0
0
0
0
0
0
0
0
0
0
0
0
0
0
0
0
0
0
0
0
0
0
0
0
0
0
0
0
0
0
0
0
0
0
0
0
0
0
0
0
0
0
0
0
0
0
0
0
0
0
0
0
0
0
0
0
0
0
0
0
0
0
0
0
0
0
0
0
0
0
0
0
0
0
0
0
0
0
0
0
0
0
0
0
0
0
0
0
0
0
0
0
0
0
0
0
0
0
0
0
0
0
0
0
0
0
0
0
0
0
0
0
0
0
0
0
0
0
0
0
0
0
0
0
0
0
0
0
0
0
0
0
0
0
0
0
0
0
0
0
0
0
0
0
0
0
0
0
0
0
0
0
0
0
0
0
0
0
0
0
0
0
0
0
0
0
0
0
0
0
0
0
0
0
0
0
0
0
0
0
0
0
0
0
0
0
0
0
0
0
0
0
0
0
0
0
0
0
0
0
0
0
0
0
0
0
0
0
0
0
0
0
0
0
0
0
0
0
0
0
0
0
0
0
0
0
0
0
0
0
0
0
0
0
0
0
0
0
0
0
0
0
0
0
0
0
0
0
0
0
0
0
0
0
0
0
0
0
0
0
0
0
0
0
0
0
0
0
0
0
0
0
0
0
0
0
0
0
0
0
0
0
0
0
0
0
0
0
0
0
0
0
0
0
0
0
0
0
0
0
0
0
0
0
0
0
0
0
0
0
0
0
0
0
0
0
0
0
0
0
0
0
0
0
0
0
0
0
0
0
0
0
0
0
0
0
0
0
0
0
0
0
0
0
0
0
0
0
0
0
0
0
0
0
0
0
0
0
0
0
0
0
0
0
0
0
0
0
0
0
0
0
0
0
0
0
0
0
0
0
0
0
0
0
0
0
0
0
0
0
0
0
0
0
0
0
0
0
0
0
0
0
0
0
0
0
0
0
0
0
0
0
0
0
0
0
0
0
0
0
0
0
0
0
0
0
0
0
0
0
0
0
0
0
0
0
0
0
0
0
0
0
0
0
0
0
0
0
0
0
0
0
0
0
0
0
0
0
0
0
0
-1.181439368655987558643962e-42
-2.342446179577245008205774e-30
-5.485644849094776195865134e-29
-6.396263736345508396500596e-28
-4.951365985521132387850068e-27
-2.862813893278006893010586e-26
-1.318783599627172309139445e-25
-5.04205104122178953549799e-25
-1.645656878462874404312996e-24
-4.680948187644159375920525e-24
-1.178795205075262128334897e-23
-2.661060156781856124832842e-23
-5.439425474412600803036975e-23
-5.436632836597260843806378e-23
-5.400730711185605654514786e-23
-5.331315677883935752848764e-23
-5.228617758571416525838797e-23
-5.093528738615712663325918e-23
-4.927609650032161056362481e-23
-4.733075309774857674404165e-23
-4.512754779200623483545361e-23
-4.270027770122673904404688e-23
-4.008738311252173141433549e-23
-3.73308832874945324245342e-23
-3.447515092614719117829946e-23
-3.156557633702287302729727e-23
-2.864718140331113947843562e-23
-2.576324904369936410948563e-23
-2.295403530414444102201042e-23
-2.025562805282826799359538e-23
-1.769900844705165931503767e-23
-1.530935929656427207518996e-23
-1.310564899623990874305988e-23
-1.110050205316028099878245e-23
-9.300348867483969193707726e-24
-7.705829935664764419026101e-24
-6.312414557635564155408706e-24
-5.111182733471943200711781e-24
-4.08971212218561099985665e-24
-3.233010100583944954134507e-24
-2.524433964339973067443612e-24
-1.946549518683957611273411e-24
-1.481888677535293309283252e-24
-1.113578945872928378964607e-24
-8.258304466616473592703012e-25
-6.042782143413613586431773e-25
-4.361877935826571633056886e-25
-3.105400673439764122582405e-25
-2.180163716722973775469002e-25
-1.509073637335855619767353e-25
-1.029691072303545389730299e-25
-6.924793376689398233084791e-26
-4.589243342086019114945203e-26
-2.996702933028918205903036e-26
-1.927753597288994976036842e-26
-1.221530819933405540130159e-26
-7.623339586965735959949092e-27
-4.685111249975962330175646e-27
-2.835157988538504782272864e-27
-1.689154179784112867320371e-27
-9.907201286763183694099934e-28
-5.719793820531092955363455e-28
-3.250262850971921826950621e-28
-1.817729738164205159036606e-28
-1.000414024889015489807714e-28
-5.418007825939216610502032e-29
-2.88723030398036169184721e-29
-1.513841503247497864880975e-29
-7.809341263005545901296185e-30
-3.963361893750933814014287e-30
-1.978841828053587813007392e-30
-9.71944339221622325025157e-31
-4.69614738725154799484077e-31
-1.710779190101270296143605e-31
-6.00093490622463033722891e-32
-2.029476000808565135331492e-32
-6.625280923088156081641752e-33
-2.090017669240303118559641e-33
-6.377505371487583295614936e-34
-1.884089017846924849759124e-34
-5.393424131983713801421088e-35
-1.497182496590577002836227e-35
-4.033115533836711028065253e-36
-1.054988444304619543871445e-36
-2.681388950127213592516987e-37
-6.625539224278804886493032e-38
-1.592420911502283442151701e-38
-3.724590848543195944506948e-39
-8.481566288096490153380471e-40
-1.881168905761034419592084e-40
-4.065337289266809863443482e-41
-8.563101640268343574478889e-42
-1.75859629182706669045209e-42
-3.522271682928513631173134e-43
-6.8819028939791092986503e-44
-1.311947794853917267213642e-44
-2.440763633095844766826434e-45
-4.431998571649692344160385e-46
-7.855709311783064180017476e-47
-1.359290835901556953550595e-47
-2.296095194084688487615663e-48
-3.786208378899038650210106e-49
-6.094196596977057197825018e-50
-9.573144113242842697217838e-51
-1.467269094953825669777424e-51
-2.193439617279991435468163e-52
-3.196584606504230279723812e-53
-4.53834364506004664160413e-54
-6.271354214264989080203695e-55
-8.424367465268983336513193e-56
-1.098200017843466227342101e-56
-1.38595749010681685589979e-57
-1.687464387164009326107499e-58
-1.971817288577820481365442e-59
-2.192978746785489457471633e-60
-2.288266984926406371543218e-61
-2.178429342665305799946307e-62
-1.769884321424255548665048e-63
-9.59563218307411088931453e-65
3.575003390308884096843637e-66
2.278079582287636230090833e-66
4.878870889448998726741679e-67
8.20398239417793831452498e-68
1.225332394791196799045807e-68
1.697360970479179210081663e-69
2.225361599242562120433197e-70
2.792498641368350539990045e-71
3.376926312885630393984732e-72
3.953102212558760185736694e-73
4.493612059445710098262552e-74
4.971327120310182606204135e-75
5.361658357861932346142453e-76
5.644646836489374664728605e-77
5.80664386342443934229931e-78
5.841385316243438156972327e-79
5.750344473471237243317746e-80
5.542343134548976476957417e-81
5.232496103863448933274766e-82
4.840644050530770877820771e-83
4.389482641810697487114473e-84
3.902615442293889176668353e-85
3.40274433114717504289226e-86
2.910169706408279436319754e-87
2.44171311493330151645983e-88
2.010108543775624122433683e-89
1.62384630207420336161038e-90
1.287403716458088587680683e-91
1.001764785861335990956671e-92
7.651177838855478054858622e-94
5.7362360069394546961696e-95
4.221641749335721903356805e-96
3.050044274680542111985912e-97
2.16327502712533589418749e-98
1.506276076165432350616229e-99
1.029644661696275257976885e-100
6.909702416954964134574876e-102
4.552148763596390686343911e-103
2.94409308113444481398204e-104
1.869194640627123665988878e-105
1.164964026350600090712828e-106
7.127051403862496576748825e-108
4.279848900686859697946656e-109
2.5225942306169763130302e-110
1.459296548028809295474138e-111
8.284976342727748134914646e-113
4.615965388868911115860086e-114
2.523637790568909559663416e-115
1.353792318550324404377468e-116
7.125291728429042077155859e-118
3.679099876469298745696039e-119
1.863499473128916856125098e-120
9.258142945805359973197191e-122
4.511087219431367897412134e-123
2.155533527420227470496507e-124
1.009940222151393983234285e-125
4.639301425160478652456399e-127
2.08916050313744273570634e-128
9.22140467937784026804167e-130
3.989051359315809207270715e-131
1.690939413964352103210816e-132
7.022766989425502086873109e-134
2.85721832500061030058366e-135
1.138580848275390765018251e-136
4.443211595720763970758992e-138
1.697724269890922005265876e-139
6.350319703911578735946044e-141
2.324878585262369666203877e-142
8.329056858643787608027545e-144
2.919398230923255570382019e-145
1.000922076367973466584211e-146
3.355986871611601988295605e-148
1.10015269236097871499252e-149
3.525282490575814067951322e-151
1.103911606368461226138829e-152
3.377230570979142300513344e-154
1.009148326438766103897805e-155
2.944380977850791295879938e-157
8.38589190234107742727989e-159
2.330702114096198122250608e-160
6.319266541084015621734359e-162
1.670871030712047914736325e-163
4.306881875865813210082529e-165
1.081850565959984071380785e-166
2.647214041913502239877374e-168
6.307448416248563613721729e-170
1.462777809377450481931597e-171
3.300436390505386002528265e-173
7.241552495321359169346533e-175
1.544359015329742056080869e-176
3.199627141347990566343575e-178
6.436529803607247159608164e-180
1.256492765413108786258476e-181
2.378840155584437471122112e-183
4.365104205277617801468209e-185
7.758177582708572546405104e-187
1.334613780509396718287166e-188
2.220543654034226609396404e-190
3.570494103260198603376718e-192
5.543688122060903441562098e-194
8.303929236603442311070201e-196
1.198865129283756735032642e-197
1.666550066391704741255282e-199
2.22821185899908438290635e-201
2.862064397945812956204821e-203
3.527314202536873797748521e-205
4.165486971314591601064762e-207
4.706656242018737906092142e-209
5.080422278051097304713472e-211
5.229787266913281059471747e-213
5.12453125603411084942147e-215
4.77004665434257261458161e-217
4.208372028639166978460993e-219
3.510362920711396580228734e-221
2.760844692203122447815123e-223
2.041041258359532465579859e-225
1.41346890466875692313262e-227
9.133888237279391739052072e-230
5.483218698242732254659434e-232
3.042385963966202398788599e-234
1.551044593440649017292191e-236
7.21520605731522993349315e-239
3.037338215347822892633471e-241
1.145518856705713972286765e-243
3.822877639514949904678111e-246
1.111290322076747670557443e-248
2.756563830488747995861412e-251
5.672658864155066821468986e-254
9.297446402298885109761711e-257
1.137835212643573968699651e-259
9.242513872411071867482664e-263
3.737369135629097215061513e-266
0
0
0
0
0
0
0
0
0
0
0
0
0
0
0
0
0
0
0
0
0
0
0
0
0
0
0
0
0
0
0
0
0
0
0
0
0
0
0
0
0
0
0
0
0
0
0
0
0
0
0
0
0
0
0
0
0
0
0
0
0
0
0
0
0
0
0
0
0
0
0
0
0
0
0
0
0
0
0
0
0
0
0
0
0
0
0
0
0
0
0
0
0
0
0
0
0
0
0
0
0
0
0
0
0
0
0
0
0
0
0
0
0
0
0
0
0
0
0
0
0
0
0
0
0
0
0
0
0
0
0
0
0
0
0
0
0
0
0
0
0
0
0
0
0
0
0
0
-5.308132507889433536452168e-28
-1.253731170233286678163389e-26
-1.473547315470276435659387e-25
-1.149038344989865577120544e-24
-6.687187785755470372200571e-24
-3.098100217762091573674532e-23
-1.190132570742274252856506e-22
-3.899011827396350825455587e-22
-1.112002487082980709550928e-21
-2.804576115964603717071483e-21
-6.333066151696336228145508e-21
-1.293279146450454400680563e-20
-2.408179594810255264921931e-20
-4.117319679926585378158847e-20
-3.924814299998774068651118e-20
-3.715831744118537529749757e-20
-3.493295529309458525436112e-20
-3.260352928033249582227087e-20
-3.020294406382938526349236e-20
-2.776467008318992690623158e-20
-2.532185064152318692337578e-20
-2.29064188609392508654361e-20
-2.054826200937519600484726e-20
-1.827446938796216288575368e-20
-1.610869641475547202289385e-20
-1.407067186150951501249432e-20
-1.217586769274528270944788e-20
-1.043534208847156605032044e-20
-8.855756611796913041112834e-21
-7.43955881085232048694599e-21
-6.185312551571801645209967e-21
-5.088150754220201861822122e-21
-4.140319531553818561269282e-21
-3.331779407002585706472152e-21
-2.650828517111633373756184e-21
-2.084714426039022038901928e-21
-1.620205123234183035253799e-21
-1.244095464871445340131256e-21
-9.436321435368327480611754e-22
-7.068475523591740079399091e-22
-5.227999854387739878102907e-22
-3.817239072251393814889731e-22
-2.750990920295782617372265e-22
-1.956510191226868425915125e-22
-1.372969307254202399059788e-22
-9.505250959185745131482106e-23
-6.491343266202513434416798e-23
-4.372441616166919846866007e-23
-2.904612957886704025115457e-23
-1.902785423319450870244855e-23
-1.229128270885268996899845e-23
-7.828614616461780402892732e-24
-4.916240018033629082545396e-24
-3.04387760833677988005924e-24
-1.858051097138075478660635e-24
-1.11819954797585228510395e-24
-6.634540149218329357075188e-25
-3.880914067599068847287604e-25
-2.238170607941641782293642e-25
-1.272606874050924334611607e-25
-7.134180495831691495434077e-26
-3.943207158566269675460351e-26
-2.148903888945025462444175e-26
-1.15465190800482191927846e-26
-6.117226084290519154770243e-27
-3.195415509756461663138234e-27
-1.645759244250803984259046e-27
-8.357274816125042593403582e-28
-4.184195357055233285610144e-28
-2.065350149681809633633597e-28
-1.005059084882856092213284e-28
-4.821516022869591665785201e-29
-2.280049077565334906419958e-29
-1.062782986911432083064973e-29
-3.652816978436049739553966e-30
-1.214861507945865548016067e-30
-3.912856783987814001788454e-31
-1.221376305013702216226893e-31
-3.697310531621011900092309e-32
-1.086106627498315930713148e-32
-3.097834574477117400035626e-33
-8.583705712774089920941644e-34
-2.311736705497991910926708e-34
-6.054120279437808924177018e-35
-1.542418756273460776805831e-35
-3.824456999548160991594568e-36
-9.232515944222493430083293e-37
-2.170746711222901835286297e-37
-4.972592157010397729499817e-38
-1.110137995048296244207932e-38
-2.416114454929135658664501e-39
-5.127675736840111919800902e-40
-1.061432103722092817629458e-40
-2.143523974116938684981841e-41
-4.223904796296128418093666e-42
-8.123132086139653921061152e-43
-1.524819777836705162720162e-43
-2.794139802946442011383569e-44
-4.998585040165104264049467e-45
-8.730399727230310609942315e-46
-1.48870916195140816141158e-46
-2.478300065019599848390242e-47
-4.027366072430519366568603e-48
-6.387586537190226304226979e-49
-9.885304521911960107090751e-50
-1.492192571199958584008233e-50
-2.195977352640081408604104e-51
-3.148551835517965744720556e-52
-4.394261358435119762295787e-53
-5.962494175428018841032608e-54
-7.85267888559156509440021e-55
-1.001498607401875490169128e-55
-1.232764932034974983462494e-56
-1.457290338765955034946616e-57
-1.641473450525942939611202e-58
-1.738274135398975938536852e-59
-1.686714115889977382217868e-60
-1.413002362970869409698944e-61
-8.33709593517524747984201e-63
1.38776982882930891309516e-64
1.588583446395901532193277e-64
3.586898850237553396852247e-65
6.181573596612193942114379e-66
9.386941679177305144176949e-67
1.317526497953777440579473e-67
1.747123035844726925465578e-68
2.215073118077968431811171e-69
2.704473240911171646538403e-70
3.194839669778197493062203e-71
3.663492497251774720998074e-72
4.087285512850102999528493e-73
4.444499104575297932336074e-74
4.716680840310363711292266e-75
4.89021711121439856075812e-76
4.95745046455788910732539e-77
4.917216300944217330019195e-78
4.774749711915848388744537e-79
4.540995542756157328719461e-80
4.231428897195837364075904e-81
3.864547916585425978354689e-82
3.460228508426888428748815e-83
3.0381296649177436708804e-84
2.616311099671411497993931e-85
2.210179172149586694779454e-86
1.831821781103306804561302e-87
1.489737710699609597481267e-88
1.188918963815104638427178e-89
9.312113957469521409689592e-91
7.158617667966681041327901e-92
5.401574707214860287608679e-93
4.000756976194895564857059e-94
2.90877398086031128269742e-95
2.07603599857105170459328e-96
1.454534117923191231786097e-97
1.000415355074287703631588e-98
6.754667101472089323423651e-100
4.477042049926243810867426e-101
2.912965581365921234678921e-102
1.860487915073948679736966e-103
1.166415279721024152987231e-104
7.177929589138914178606245e-106
4.33557800568097549550278e-107
2.570255230094294232994734e-108
1.495423052777338688518295e-109
8.538570541301368461905326e-111
4.78422803436465207811267e-112
2.630353653844910021463652e-113
1.418925616707503386036313e-114
7.509545591172894250960406e-116
3.898874497364332428155096e-117
1.98562458652819957646906e-118
9.918493743729412118503508e-120
4.858934912868486089391953e-121
2.334193988082427772768926e-122
1.099473258766221063979694e-123
5.077304350070845212250559e-125
2.29841798959608268860089e-126
1.019802568305230166879567e-127
4.43441049541274512090109e-129
1.889414304945057877187482e-130
7.887259728927656388683175e-132
3.225270065862565790603296e-133
1.291747254751535614564851e-134
5.066267419499727959200629e-136
1.945460085453363251718955e-137
7.313101548296433065026902e-139
2.690568823618855267586715e-140
9.686449317025327388238956e-142
3.411727906829119245372376e-143
1.175387457760032719698713e-144
3.959938191215875940026565e-146
1.304356421187061994216884e-147
4.199526664493039883769103e-149
1.32127104461453185028579e-150
4.061231727888728283348692e-152
1.219213852846340211113078e-153
3.573841103628414431194841e-155
1.022575803480170021448233e-156
2.855136247353796980325238e-158
7.776595116478674525503144e-160
2.065558748232162273312807e-161
5.348334712605321657736995e-163
1.34950097568434309894279e-164
3.316917933354581200778636e-166
7.938321282083458752027818e-168
1.849150648078268253269936e-169
4.190579161813842763496969e-171
9.234917378789685000731002e-173
1.978054509276272248765292e-174
4.115931439560924095212244e-176
8.31552240701862196266904e-178
1.630260721338729757662188e-179
3.099645873477277511950596e-181
5.71191462450585546057623e-183
1.019477641475864654293717e-184
1.761145398494956678593316e-186
2.942465341067995001307303e-188
4.750985454857805577458729e-190
7.407105117862903734892464e-192
1.11408616720508257855391e-193
1.615035482007681749516229e-195
2.254228631029547089923993e-197
3.026183623066323974098283e-199
3.902732821544687510310276e-201
4.82920560601313971744072e-203
5.72573236223452694358735e-205
6.495358413941599517685864e-207
7.038944931905541223683195e-209
7.274459125800172963456746e-211
7.156021662268238076053472e-213
6.687024298038409232284501e-215
5.922556377862854965205174e-217
4.959341320963006339933771e-219
3.9154621168546678914998e-221
2.905722499967679703893215e-223
2.019957412230605657661784e-225
1.31026039201430805615399e-227
7.89543167477390273315638e-230
4.397293975856726418626048e-232
2.250188527954535517101677e-234
1.050653229194168936100254e-236
4.439279839309047459174298e-239
1.680440125981480110266087e-241
5.628665141132638675352154e-244
1.642213428014813739990327e-246
4.088368785800013871291098e-249
8.443870554324700418070903e-252
1.388943149908527229100285e-254
1.705921698612445125685847e-257
1.390662908917800078748128e-260
5.643427394799818240717712e-264
0
0
0
0
0
0
0
0
0
0
0
0
0
0
0
0
0
0
0
0
0
0
0
0
0
0
0
0
0
0
0
0
0
0
0
0
0
0
0
0
0
0
0
0
0
0
0
0
0
0
0
0
0
0
0
0
0
0
0
0
0
0
0
0
0
0
0
0
0
0
0
0
0
0
0
0
0
0
0
0
0
0
0
0
0
0
0
0
0
0
0
0
0
0
0
0
0
0
0
0
0
0
0
0
0
0
0
0
0
0
0
0
0
0
0
0
0
0
0
0
0
0
0
0
0
0
0
0
0
0
0
0
0
0
0
0
0
0
0
0
0
0
0
0
0
0
0
0
-7.003001760807324332243162e-30
-6.46265966747918372519338e-27
-1.50025551505423800167916e-25
-1.747518153985834418448627e-24
-1.353055825770319367166133e-23
-7.823678851003707962715132e-23
-3.601803649524991492828868e-22
-1.374870802464783766424809e-21
-4.475086794935368737876308e-21
-1.267775264767399569709816e-20
-3.175283635154453900736245e-20
-7.118410575488712716626605e-20
-1.442714284793310644800757e-19
-2.66536013198996619492361e-19
-4.51979779872555435116654e-19
-4.389468606404437770828174e-19
-4.230614482155836223430702e-19
-4.045860665639290078285297e-19
-3.838385622502445683572945e-19
-3.61183350297370250107483e-19
-3.370207427443809965212964e-19
-3.117747786299170290062296e-19
-2.858800759764708135109069e-19
-2.597683014444273489131622e-19
-2.338548940040148204522366e-19
-2.085266797661134507836245e-19
-1.841309735027842023477954e-19
-1.609666793661001176528262e-19
-1.392777836072720879639542e-19
-1.19249484008874142893632e-19
-1.010070355587444744684167e-19
-8.461722290220514850277407e-20
-7.009221129663728364849994e-20
-5.739539237574797353913184e-20
-4.644873999858331203649529e-20
-3.714113232737999901861736e-20
-2.933708224912761221070672e-20
-2.288534790239837461028021e-20
-1.762696262483787459252436e-20
-1.340231982798739537025721e-20
-1.005706163735111273071792e-20
-7.446638387864251481996911e-21
-5.439517802999269614001042e-21
-3.919118537451754205765554e-21
-2.784616297411879643879143e-21
-1.950818861153412820439851e-21
-1.347329106771786918367993e-21
-9.172153912864772160531932e-22
-6.153909642254630584558634e-22
-4.068741412079849990608628e-22
-2.650643949594663021332702e-22
-1.701314107393196390519828e-22
-1.075784857946115097559713e-22
-6.70111197092589111126459e-23
-4.111765562342022568677918e-23
-2.48517025859275241023425e-23
-1.479528521921691870366269e-23
-8.676200493549869254082978e-24
-5.011651315836306920998404e-24
-2.851603271311850729023471e-24
-1.598349696778515915431371e-24
-8.825743580136086947237605e-25
-4.801248536428734012492277e-25
-2.573418664553872170730668e-25
-1.359103770785478022009943e-25
-7.073181859127160151559008e-26
-3.627703465709320149619213e-26
-1.833740018803417024291619e-26
-9.136200120609488916609036e-27
-4.486892933894512935086649e-27
-2.172226661812964151000976e-27
-1.036732774171596344088951e-27
-4.878079412358029946114533e-28
-2.262892809976365378506028e-28
-1.034949511056468904959521e-28
-3.427274398900355253121822e-29
-1.100114681248099415721891e-29
-3.425638382199030898943694e-30
-1.035547619616570152859841e-30
-3.040862914227828037543724e-31
-8.678883854146202920682858e-32
-2.408725387359044429295833e-32
-6.503715929590835907993308e-33
-1.70908267505180567606439e-33
-4.372732503455932703879912e-34
-1.089630196481997723018118e-34
-2.645321426234477240597355e-35
-6.258605009685768772447689e-36
-1.443424134473663726338619e-36
-3.245912070331837196138781e-37
-7.118800191545782527537562e-38
-1.522989823950526916409883e-38
-3.179011868549915677035953e-39
-6.475431673013562807025725e-40
-1.287343519507441659229028e-40
-2.498202687826158209694009e-41
-4.732782205203092213674889e-42
-8.753824593088398370503718e-43
-1.580868737753840103877371e-43
-2.787534123723419276527036e-44
-4.799147449765745591880868e-45
-8.066796684714156038666102e-46
-1.323675791912146578019811e-46
-2.119961404414329548263161e-47
-3.313049375089063653540309e-48
-5.050403976907795933435224e-49
-7.506061288326117431958068e-50
-1.086934954263560507423809e-50
-1.532223989476897361432059e-51
-2.100189759755102925249742e-52
-2.794581793526878020824496e-53
-3.601878121457142521073819e-54
-4.482389178902947099697703e-55
-5.360410697404297530649104e-56
-6.114553744790980495785475e-57
-6.569868486302435468087036e-58
-6.493762713773818945297323e-59
-5.59787280686678602896013e-60
-3.547853769734550012716521e-61
1.756846359638996403495429e-64
5.458012511988947155798661e-63
1.309450231195974962383275e-63
2.316699408404615225547741e-64
3.579076252543878116911423e-65
5.091722260048890682941569e-66
6.830525066414828947014448e-67
8.750863368605862322142669e-68
1.078838374513804700409408e-68
1.286199505449481599367586e-69
1.487897289623964495020903e-70
1.674175867742462354564594e-71
1.835576755093727241635798e-72
1.963733641615489357337866e-73
2.052088357298812181945517e-74
2.096443046099450170155216e-75
2.095284310919443747330694e-76
2.049845291568543517327372e-77
1.963906275046818133159003e-78
1.843367794452921074273295e-79
1.695656978655300682605901e-80
1.52904433088955367149729e-81
1.351952367224104398229882e-82
1.172330094505299684473488e-83
9.971505470480792860703564e-85
8.320662113002384287629859e-86
6.812332831143923515416342e-87
5.472941060010402531574484e-88
4.314906399905725383743532e-89
3.338719100797744032223563e-90
2.535552452431775504103519e-91
1.890038021108537591460087e-92
1.382897148429952221233046e-93
9.932129254001304332986811e-95
7.002218180269640291186996e-96
4.845890142582008865429079e-97
3.291974378060573993126832e-98
2.195236203177324553705427e-99
1.436950519309539242910351e-100
9.232704638637948554545856e-102
5.822782996710600220961039e-103
3.604392006277686567933042e-104
2.189856953540069301000321e-105
1.305755277440348290492546e-106
7.64095506548665326450034e-108
4.387815611440864203194843e-109
2.472501791596497575466662e-110
1.367044570315935557738976e-111
7.415740054440928731358903e-113
3.946550949411614985260404e-114
2.060324536330527180515021e-115
1.055040807829450159283051e-116
5.298796737619806361251754e-118
2.609852609687679746213119e-119
1.260489999909181669520307e-120
5.968966310105721426554011e-122
2.771049790783105307629257e-123
1.261019282590982083204253e-124
5.624391352210445037429957e-126
2.458370800693447063545689e-127
1.052873807278831364004229e-128
4.417724827663741775126844e-130
1.8157162077620562309394e-131
7.308949545198355891394508e-133
2.881027585072233499066121e-134
1.111859895850089055302355e-135
4.200340576414800098636491e-137
1.55299147882326191819346e-138
5.618478474858675459892108e-140
1.988588349356495824594227e-141
6.884229829378055034198201e-143
2.330526780972741306661392e-144
7.713315361626621778316177e-146
2.495239043917182174194948e-147
7.887852489231982672150327e-149
2.435947205462218530778761e-150
7.347194950876686398315461e-152
2.163699606242486345339147e-153
6.219649439110871209438525e-155
1.744595123126906995751079e-156
4.773573488712963105651076e-158
1.27369956859204864414624e-159
3.312931831597389802377791e-161
8.396936436965998891260621e-163
2.07312517122369733980405e-164
4.983702619889996177153052e-166
1.166052283982075714688458e-167
2.654188778254214127485805e-169
5.874794299256872698237677e-171
1.263833226287382421066182e-172
2.641201831342428461699019e-174
5.359140314858480429854526e-176
1.055176425118223357572866e-177
2.014804508837073899192165e-179
3.728600534615423748774869e-181
6.683066239432514719744881e-183
1.159358829127524330022122e-184
1.94513346041944633111481e-186
3.153755463501291317364419e-188
4.937306175446220217299279e-190
7.456733646149581764940613e-192
1.085403857961436589818021e-193
1.521170632293898469992591e-195
2.050393629713281233729392e-197
2.65499792227437347671982e-199
3.298495841243154040960915e-201
3.926519249558691297854786e-203
4.472062764011101039704119e-205
4.865552211237567892469718e-207
5.048203693865163260292017e-209
4.985529243892021063285061e-211
4.6770059357284147007426e-213
4.158451417088036164733269e-215
3.495633691144492933268209e-217
2.77048996428300437009466e-219
2.063913752388772335462839e-221
1.440242948069372709844158e-223
9.377771359472615158854593e-226
5.672294879185733598635255e-228
3.171040490235485691380049e-230
1.628774995246942903847844e-232
7.633436234290257236942748e-235
3.237310483903059049275723e-237
1.229981939988560762241802e-239
4.135021127339151406547415e-242
1.210852861893928755864002e-244
3.025479189932577055574175e-247
6.271348552682382003229473e-250
1.035314017501244806116804e-252
1.276168460241844556316643e-255
1.044059295279745992438493e-258
4.252004865605405932687071e-262
0
0
0
0
0
0
0
0
0
0
0
0
0
0
0
0
0
0
0
0
0
0
0
0
0
0
0
0
0
0
0
0
0
0
0
0
0
0
0
0
0
0
0
0
0
0
0
0
0
0
0
0
0
0
0
0
0
0
0
0
0
0
0
0
0
0
0
0
0
0
0
0
0
0
0
0
0
0
0
0
0
0
0
0
0
0
0
0
0
0
0
0
0
0
0
0
0
0
0
0
0
0
0
0
0
0
0
0
0
0
0
0
0
0
0
0
0
0
0
0
0
0
0
0
0
0
0
0
0
0
0
0
0
0
0
0
0
0
0
0
0
0
0
0
0
0
0
0
0
-8.469971334586433679843897e-29
-3.918232075596920857065108e-26
-8.938923392890921581091332e-25
-1.031759251693418547822551e-23
-7.931765483162400732174842e-23
-4.556755948345658847784538e-22
-2.08474561650885412975038e-21
-7.908469752386429809561941e-21
-2.557938950077233602174833e-20
-7.199766982291050990384092e-20