/*--------------------------------*- C++ -*----------------------------------*\
| =========                 |                                                 |
| \\      /  F ield         | OpenFOAM: The Open Source CFD Toolbox           |
|  \\    /   O peration     | Version:  v2012                                 |
|   \\  /    A nd           | Website:  www.openfoam.com                      |
|    \\/     M anipulation  |                                                 |
\*---------------------------------------------------------------------------*/
FoamFile
{
    version     2.0;
    format      ascii;
    class       volScalarField;
    location    "0.8";
    object      alpha.water;
}
// * * * * * * * * * * * * * * * * * * * * * * * * * * * * * * * * * * * * * //

dimensions      [0 0 0 0 0 0 0];


internalField   nonuniform List<scalar> 
96000
(
0
0
0
0
0
0
0
0
0
0
0
0
0
0
0
0
0
0
0
0
0
0
0
0
0
0
0
0
0
0
0
0
0
0
0
0
0
0
0
0
0
0
0
0
0
0
0
0
0
0
0
0
0
0
0
0
0
0
0
0
0
0
0
0
0
0
0
0
0
0
0
0
0
0
0
0
0
0
0
0
0
0
0
0
0
0
0
0
0
0
0
0
0
0
0
0
0
0
0
0
0
0
0
0
0
0
0
0
0
0
0
0
0
0
0
0
0
0
0
0
0
0
0
0
0
0
0
0
0
0
0
0
0
0
0
0
0
0
0
0
0
0
0
0
0
0
0
0
0
0
0
0
0
0
0
0
0
0
0
0
0
0
0
0
0
0
0
0
0
0
0
0
0
0
0
0
0
0
0
0
0
0
0
0
0
0
0
0
0
0
0
0
0
0
0
0
0
0
0
0
0
0
0
0
0
0
0
0
0
0
0
0
0
0
0
0
0
0
0
0
0
0
0
0
0
0
0
0
0
0
0
0
0
0
0
0
0
0
0
0
0
0
0
0
0
0
0
0
0
0
0
0
0
0
0
0
0
0
0
0
0
0
0
0
0
0
0
0
0
0
0
0
0
0
0
0
0
0
0
0
0
0
0
0
0
0
0
0
0
0
0
0
0
0
0
0
0
0
0
0
0
0
0
0
0
0
0
0
0
0
0
0
0
0
0
0
0
0
0
0
0
0
0
0
0
0
0
0
0
0
0
0
0
0
0
0
0
0
0
0
0
0
0
0
0
0
0
0
0
0
0
0
0
0
0
0
0
0
0
0
0
0
0
0
0
0
0
0
0
0
0
0
0
0
0
0
0
0
0
0
0
0
0
0
0
0
0
0
0
0
0
0
0
0
0
0
0
0
0
0
0
0
0
0
0
0
0
0
0
0
0
0
0
0
0
0
0
0
0
0
0
0
0
0
0
0
0
0
0
0
0
0
0
0
0
0
0
0
0
0
0
0
0
0
0
0
0
0
0
0
0
0
0
0
0
0
0
0
0
0
0
0
0
0
0
0
0
0
0
0
0
0
0
0
0
0
0
0
0
0
0
0
0
0
0
0
0
0
0
0
0
0
0
0
0
0
0
0
0
0
0
0
0
0
0
0
0
0
0
0
0
0
0
0
0
0
0
0
0
0
0
0
0
0
0
0
0
0
0
0
0
0
0
0
0
0
0
0
0
0
0
0
0
0
0
0
0
0
0
0
0
0
0
0
0
0
0
0
0
0
0
0
0
0
0
0
0
0
0
0
0
0
0
0
0
0
0
0
0
0
0
0
0
0
0
0
0
0
0
0
0
0
0
0
0
0
0
0
0
0
0
0
0
0
0
0
0
0
0
0
0
0
0
0
0
0
0
0
0
0
0
0
0
0
0
0
0
0
0
0
0
0
0
0
0
0
0
0
0
0
0
0
0
0
0
0
0
0
0
0
0
0
0
0
0
0
0
0
0
0
0
0
0
0
0
0
0
0
0
0
0
0
0
0
0
0
0
0
0
0
0
0
0
0
0
0
0
0
0
0
0
0
0
0
0
0
0
0
0
0
0
0
0
0
0
0
0
0
0
0
0
0
0
0
0
0
0
0
0
0
0
0
0
0
0
0
0
0
0
0
0
0
0
0
0
0
0
0
0
0
0
0
0
0
0
0
0
0
0
0
0
0
0
0
0
0
0
0
0
0
0
0
0
0
0
0
0
0
0
0
0
0
0
0
0
0
0
0
0
0
0
0
0
0
0
0
0
0
0
0
0
0
0
0
0
0
0
0
0
0
0
0
0
0
0
0
0
0
0
0
0
0
0
0
0
0
0
0
0
0
0
0
0
0
0
0
0
0
0
0
0
0
0
0
0
0
0
0
0
0
0
0
0
0
0
0
0
0
0
0
0
0
0
0
0
0
0
0
0
0
0
0
0
0
0
0
0
0
0
0
0
0
0
0
0
0
0
0
0
0
0
0
0
0
0
0
0
0
0
0
0
0
0
0
0
0
0
0
0
0
0
0
0
0
0
0
0
0
0
0
0
0
0
0
0
0
0
0
0
0
0
0
0
0
0
0
0
0
0
0
0
0
0
0
0
0
0
0
0
0
0
0
0
0
0
0
0
0
0
0
0
0
0
0
0
0
0
0
0
0
0
0
0
0
0
0
0
0
0
0
0
0
0
0
0
0
0
0
0
0
0
0
0
0
0
0
0
0
0
0
0
0
0
0
0
0
0
0
0
0
0
0
0
0
0
0
0
0
0
0
0
0
0
0
0
0
0
0
0
0
0
0
0
0
0
0
0
0
0
0
0
0
0
0
0
0
0
0
0
0
0
0
0
0
0
0
0
0
0
0
0
0
0
0
0
0
0
0
0
0
0
0
0
0
0
0
0
0
0
0
0
0
0
0
0
0
0
0
0
0
0
0
0
0
0
0
0
0
0
0
0
0
0
0
0
0
0
0
0
0
0
0
0
0
0
0
0
0
0
0
0
0
0
0
0
0
0
0
0
0
0
0
0
0
0
0
0
0
0
0
0
0
0
0
0
0
0
0
0
0
0
0
0
0
0
0
0
0
0
0
0
0
0
0
0
0
0
0
0
0
0
0
0
0
0
0
0
0
0
0
0
0
0
0
0
0
0
0
0
0
0
0
0
0
0
0
0
0
0
0
0
0
0
0
0
0
0
0
0
0
0
0
0
0
0
0
0
0
0
0
0
0
0
0
0
0
0
0
0
0
0
0
0
0
0
0
0
0
0
0
0
0
0
0
0
0
0
0
0
0
0
0
0
0
0
0
0
0
0
0
0
0
0
0
0
0
0
0
0
0
0
0
0
0
0
0
0
0
0
0
0
0
0
0
0
0
0
0
0
0
0
0
0
0
0
0
0
0
0
0
0
0
0
0
0
0
0
0
0
0
0
0
0
0
0
0
0
0
0
0
0
0
0
0
0
0
0
0
0
0
0
0
0
0
0
0
0
0
0
0
0
0
0
0
0
0
0
0
0
0
0
0
0
0
0
0
0
0
0
0
0
0
0
0
0
0
0
0
0
0
0
0
0
0
0
0
0
0
0
0
0
0
0
0
0
0
0
0
0
0
0
0
0
0
0
0
0
0
0
0
0
0
0
0
0
0
0
0
0
0
0
0
0
0
0
0
0
0
0
0
0
0
0
0
0
0
0
0
0
0
0
0
0
0
0
0
0
0
0
0
0
0
0
0
0
0
0
0
0
0
0
0
0
0
0
0
0
0
0
0
0
0
0
0
0
0
0
0
0
0
0
0
0
0
0
0
0
0
0
0
0
0
0
0
0
0
0
0
0
0
0
0
0
0
0
0
0
0
0
0
0
0
0
0
0
0
0
0
0
0
0
0
0
0
0
0
0
0
0
0
0
0
0
0
0
0
0
0
0
0
0
0
0
0
0
0
0
0
0
0
0
0
0
0
0
0
0
0
0
0
0
0
0
0
0
0
0
0
0
0
0
0
0
0
0
0
0
0
0
0
0
0
0
0
0
0
0
0
0
0
0
0
0
0
0
0
0
0
0
0
0
0
0
0
0
0
0
0
0
0
0
0
0
0
0
0
0
0
0
0
0
0
0
0
0
0
0
0
0
0
0
0
0
0
0
0
0
0
0
0
0
0
0
0
0
0
0
0
0
0
0
0
0
0
0
0
0
0
0
0
0
0
0
0
0
0
0
0
0
0
0
0
0
0
0
0
0
0
0
0
0
0
0
0
0
0
0
0
0
0
0
0
0
0
0
0
0
0
0
0
0
0
0
0
0
0
0
0
0
0
0
0
0
0
0
0
0
0
0
0
0
0
0
0
0
0
0
0
0
0
0
0
0
0
0
0
0
0
0
0
0
0
0
0
0
0
0
0
0
0
0
0
0
0
0
0
0
0
0
0
0
0
0
0
0
0
0
0
0
0
0
0
0
0
0
0
0
0
0
0
0
0
0
0
0
0
0
0
0
0
0
0
0
0
0
0
0
0
0
0
0
0
0
0
0
0
0
0
0
0
0
0
0
0
0
0
0
0
0
0
0
0
0
0
0
0
0
0
0
0
0
0
0
0
0
0
0
0
0
0
0
0
0
0
0
0
0
0
0
0
0
0
0
0
0
0
0
0
0
0
0
0
0
0
0
0
0
0
0
0
0
0
0
0
0
0
0
0
0
0
0
0
0
0
0
0
0
0
0
0
0
0
0
0
0
0
0
0
0
0
0
0
0
0
0
0
0
0
0
0
0
0
0
0
0
0
0
0
0
0
0
0
0
0
0
0
0
0
0
0
0
0
0
0
0
0
0
0
0
0
0
0
0
0
0
0
0
0
0
0
0
0
0
0
0
0
0
0
0
0
0
0
0
0
0
0
0
0
0
0
0
0
0
0
0
0
0
0
0
0
0
0
0
0
0
0
0
0
0
0
0
0
0
0
0
0
0
0
0
0
0
0
0
0
0
0
0
0
0
0
0
0
0
0
0
0
0
0
0
0
0
0
0
0
0
0
0
-1.074715075853323520869014e-38
-3.508244101132327788582046e-26
-5.810109275006695885384293e-25
-4.782166897668270783200002e-24
-2.608642370395928197120031e-23
-1.061099214328389734936246e-22
-3.433352043796315099846769e-22
-9.205872863110736894922204e-22
-2.104071341114982690863992e-21
-4.184901642702118438381138e-21
-7.358665752046287926568412e-21
-1.15827229899432466239516e-20
-1.648506212242167309627413e-20
-1.481735753501074951124486e-20
-1.317893875203368989042521e-20
-1.159460824070760558407237e-20
-1.008628110048362761548723e-20
-8.672336892534558089773266e-21
-7.36715534893008691746414e-21
-6.180860273382138376661105e-21
-5.119281183544438470225104e-21
-4.184126393843848270165418e-21
-3.373345859451982344173999e-21
-2.681648785979308841092845e-21
-2.10113115638926059806417e-21
-1.62196294163247068976374e-21
-1.23308429768620078763663e-21
-9.228643366182457537327874e-22
-6.79684323588762314512713e-22
-4.924181578861366042543502e-22
-3.507952441434433862737333e-22
-2.456428286709027725610143e-22
-1.690152523393458043862559e-22
-1.142254242038032536346514e-22
-7.579868846717359520916854e-23
-4.937114929379710975075804e-23
-3.155382857812428514992605e-23
-1.978141165471646022811812e-23
-1.216054215777495796046375e-23
-7.328388262944179051174103e-24
-4.328118752349698504576786e-24
-2.504416737931895352746676e-24
-1.419446349595974611374329e-24
-7.878281864901690805235754e-25
-4.281013441290853753237238e-25
-2.277057295347653122155806e-25
-1.185306767211859202531143e-25
-6.037282731214958410145563e-26
-3.008416354573898910429072e-26
-1.466421337617627270063315e-26
-6.991162994727220376393701e-27
-3.259580007414378934350926e-27
-1.486117100047889434465106e-27
-6.625010395850440771941017e-28
-2.887553552387508304765284e-28
-1.230426069548695825314663e-28
-5.125528527985154864081398e-29
-2.087171171198572649877771e-29
-8.307965340471575116342402e-30
-3.23244375102620337185169e-30
-1.229278563950153090320253e-30
-4.569157071459964509997258e-31
-1.659858218460401705117682e-31
-5.892995423215076848728273e-32
-2.044607595368775478224834e-32
-6.932144302632852419343367e-33
-2.296567978194186555100251e-33
-7.433776030880003775260363e-34
-2.350796516296111372507864e-34
-7.261791680328453853173532e-35
-2.19094900000125852220591e-35
-6.455104631140014810325969e-36
-1.856789867800930180298278e-36
-3.275265480007410626915025e-37
-5.558245661372420705249817e-38
-9.074688691268206998605927e-39
-1.424983007256245320405204e-39
-2.150843482295144945484125e-40
-3.117275931714360427143494e-41
-4.330999064330209389800929e-42
-5.753501252198874348986407e-43
-7.279039217860327431071515e-44
-8.714400176125454340915676e-45
-9.76609923702298025102533e-46
-1.004147052371657345441263e-46
-9.069435410360498045863495e-48
-6.344204712444824371090875e-49
-1.39085625784558948730456e-50
6.153723873597570433177584e-51
1.645643466382202862320264e-51
2.941579191757378156929011e-52
4.461851825083605517105631e-53
6.133840663727200920426656e-54
7.858426655075433057690835e-55
9.519453826596808333143478e-56
1.099664553246382135061124e-56
1.217998181974425292810834e-57
1.298315523134515148356583e-58
1.335383600142996447564159e-59
1.327907551933520984330016e-60
1.278511649366011175148102e-61
1.193193352456807245184552e-62
1.080375399918639534278456e-63
9.497409373757418987857015e-65
8.110540094292181636406407e-66
6.731435564777032824391701e-67
5.431741897258510457508021e-68
4.262578258080491860824007e-69
3.25393664107180785349193e-70
2.416731743244547724984025e-71
1.74658692527642350830855e-72
1.228392854493427052611058e-73
8.40809711051177944661881e-75
5.60126712225355860977356e-76
3.631664823253955301833608e-77
2.291648388541737382637067e-78
1.407325977074912553715612e-79
8.410431128138998829085992e-81
4.890825082200416947086561e-82
2.767205338043945812919228e-83
1.523151209511173964677289e-84
8.155042098221155586337383e-86
4.246415602712299358111825e-87
2.150086455834451826158191e-88
1.058383515590582134646398e-89
5.063992518095461231758075e-91
2.354547804789187455320277e-92
1.063605215552529821172686e-93
4.6665740274196542999605e-95
1.988103236702286592403648e-96
8.221913384481451049124221e-98
3.299602973501166423149904e-99
1.284570958900768796275642e-100
4.849597665554440098414064e-102
1.774755027603203311514012e-103
6.293321644231212658672375e-105
2.161440131272671188626691e-106
7.186705214091370662103863e-108
2.312220556771185060299998e-109
7.194789035626445008838646e-111
2.164008915422598724720934e-112
6.287821980286040400742259e-114
1.763899420718574281850768e-115
4.774137060652348396952321e-117
1.245833722575500321207387e-118
3.132175464654337610992019e-120
7.580674557693531521971915e-122
1.764723702404458663347892e-123
3.947827662428730794169553e-125
8.478703619353650147157821e-127
1.746371379082120951446549e-128
3.445810440646651191666946e-130
6.505302663525299653951947e-132
1.173536034734534259420001e-133
2.020051372940586062215187e-135
3.312812213810367630291621e-137
5.167391838031450177489268e-139
7.652272001367449908922358e-141
1.073695730459548411025911e-142
1.424240135655311076195839e-144
1.781698346817582942721568e-146
2.09630239101658226259463e-148
2.31272594820617022580789e-150
2.384313675106555676502658e-152
2.288206907401482093581364e-154
2.035206798999679864031311e-156
1.669185188109224871708727e-158
1.25495546201007022815017e-160
8.589653710941973293158193e-163
5.308408125943724576028276e-165
2.932587823983447885898222e-167
1.43041500010370309368348e-169
6.064275650461166765261809e-172
2.189109525976413526185218e-174
6.542046875377752169001775e-177
1.553848755550298729248111e-179
2.750070694237261499513286e-182
3.223932982429526135574196e-185
1.87765461993560371442796e-188
0
0
0
0
0
0
0
0
0
0
0
0
0
0
0
0
0
0
0
0
0
0
0
0
0
0
0
0
0
0
0
0
0
0
0
0
0
0
0
0
0
0
0
0
0
0
0
0
0
0
0
0
0
0
0
0
0
0
0
0
0
0
0
0
0
0
0
0
0
0
0
0
0
0
0
0
0
0
0
0
0
0
0
0
0
0
0
0
0
0
0
0
0
0
0
0
0
0
0
0
0
0
0
0
0
0
0
0
0
0
0
0
0
0
0
0
0
0
0
0
0
0
0
0
0
0
0
0
0
0
0
0
0
0
0
0
0
0
0
0
0
0
0
0
0
0
0
0
0
0
0
0
0
0
0
0
0
0
0
0
0
0
0
0
0
0
0
0
0
0
0
0
0
0
0
0
0
0
0
0
0
0
0
0
0
0
0
0
0
0
0
0
0
0
0
0
0
0
0
0
0
0
0
0
0
0
0
0
0
0
0
0
0
0
0
0
0
0
0
0
-7.949904984465225620674014e-24
-1.332556738515200181586976e-22
-1.108726722017832461597829e-21
-6.104530871945100601028925e-21
-2.501825796194940674061252e-20
-8.139621404889439121295887e-20
-2.189581279412901094349723e-19
-5.008451648669900006347484e-19
-9.943316234028241256391179e-19
-1.740336027232726108840855e-18
-2.718682149011759695792772e-18
-3.828529546351672141232145e-18
-4.90031634076080775434386e-18
-5.740294967678892225497396e-18
-4.824700030625197571138124e-18
-4.007002145156642071405475e-18
-3.287043801026501354753844e-18
-2.662251557269407247954e-18
-2.127989834291563582127692e-18
-1.677972868069975776841768e-18
-1.304707105682544661767664e-18
-9.999361206278291987292676e-19
-7.55062188266982727368575e-19
-5.615227088564445174980185e-19
-4.111052076522821331943946e-19
-2.961910381326596426054197e-19
-2.099244608756726392509588e-19
-1.463097927909811990358297e-19
-1.002442632712880340673369e-19
-6.749770398747660799580663e-20
-4.465208447268250480922942e-20
-2.901424887056745409662415e-20
-1.85142520340856420974677e-20
-1.159979623069872660639744e-20
-7.134841810520227127976594e-21
-4.30789601241455499215302e-21
-2.553092231661869175709917e-21
-1.485175042308394607090379e-21
-8.48013484202946881067341e-22
-4.752903644132675100134282e-22
-2.615016037133740479605017e-22
-1.412488196431906820342981e-22
-7.490854683983400413128974e-23
-3.900824490789225578654493e-23
-1.994804005978987356115677e-23
-1.001837845097332620217541e-23
-4.941668371962450656580144e-24
-2.39410059149472259133197e-24
-1.139208700322335987463541e-24
-5.324023974716261755340674e-25
-2.443541453845101781844409e-25
-1.101268303659956041305658e-25
-4.872987998072383832085654e-26
-2.116640688330736304054857e-26
-9.023126541268222253430992e-27
-3.774187697112240000914289e-27
-1.548592626839426969869431e-27
-6.231368560672383663646087e-28
-2.458353487461601405337838e-28
-9.506061070754073328119736e-29
-3.601912753605345540038503e-29
-1.336978435789184980859492e-29
-4.860250677671739412192656e-30
-1.729907582391399760549159e-30
-6.027073246173440361746138e-31
-2.054947815021992104175068e-31
-6.85486041530664032003141e-32
-2.236623324288585258061179e-32
-7.136333810937447698996437e-33
-2.226045705431400060770489e-33
-6.786607763900802894702088e-34
-2.021650617141439634391335e-34
-5.882438452713951407529888e-35
-1.67129795130517550489427e-35
-2.874837277691296265471588e-36
-4.75868661863958392759892e-37
-7.57766486540996760138565e-38
-1.160076703610794656865582e-38
-1.705660171685535777279919e-39
-2.404666802591691511592695e-40
-3.242704689417369985290225e-41
-4.166843416154833725194852e-42
-5.071626715309656281655608e-43
-5.788446165827255461102634e-44
-6.082417838655086896433808e-45
-5.660880567128318440701064e-46
-4.196458996170407089777806e-47
-1.365212379928630173184114e-48
3.103006415033562614828778e-49
9.368561068300185101562236e-50
1.743004653327342509053307e-50
2.708734698819840983669939e-51
3.792978433542498613860286e-52
4.935582920228923010811781e-53
6.062520553596524596145695e-54
7.093768525594896368453155e-55
7.952699120063329956130162e-56
8.575450946377441168405248e-57
8.918697353636608097300061e-58
8.964513933956862384370388e-59
8.721606176385757374473259e-60
8.222855906462791950856082e-61
7.51981593752385010880412e-62
6.675277163680060389251654e-63
5.755256599668177218526131e-64
4.821688636876500464050742e-65
3.926796496964302754198038e-66
3.109676865337247686945346e-67
2.395164455899433917877603e-68
1.794655588864439932209101e-69
1.308323958470625567567256e-70
9.280756114765733799470248e-72
6.406423423592901975366936e-73
4.3035707229601794091719e-74
2.813376795917419578423353e-75
1.789806268198551175795009e-76
1.108017426912904125228699e-77
6.674570792022673256519553e-79
3.912019963461622309480726e-80
2.230673543278629611842603e-81
1.237303719376638575824124e-82
6.675167887364936561797133e-84
3.502080864251407911832237e-85
1.786459635912188405416021e-86
8.858919607200153566807628e-88
4.26971396007209197525746e-89
1.999630162056513883174992e-90
9.097628936366476677334858e-92
4.019956749794634931737556e-93
1.724678534943043271264529e-94
7.182230240080476952790497e-96
2.902265440052347201945084e-97
1.137614130344662708960306e-98
4.323913662016488403900386e-100
1.593007012621411772149606e-101
5.686450277428222733075177e-103
1.965898821057414996634832e-104
6.579297142768188201031565e-106
2.130522906881452521433057e-107
6.672035032884040407158522e-109
2.019570754046130947086135e-110
5.905231655673950503655538e-112
1.666957440254542043886333e-113
4.539805971883277265335045e-115
1.191989194713302626653128e-116
3.01513414151108785975856e-118
7.341682256206509075377291e-120
1.719375923099759625543983e-121
3.86935213738912586620766e-123
8.359404913185688126117706e-125
1.731922942939096651035424e-126
3.437240519798727638827144e-128
6.526697117523746239677706e-130
1.184161451061521062294719e-131
2.049966921100910341146906e-133
3.380904440813702735743602e-135
5.303237391318604457955505e-137
7.897249993446316101502569e-139
1.114204733026517264805722e-140
1.486099865031133659108263e-142
1.869230710012028507804542e-144
2.211209039878816412791186e-146
2.45262185849992437709305e-148
2.542049406509032238608142e-150
2.452527595104912354344041e-152
2.192851435179736070598886e-154
1.807887827753186716489311e-156
1.366299777625126360101993e-158
9.400018000249475895228242e-161
5.83898661696955402906001e-163
3.242121771339321204544589e-165
1.589390521250966199520361e-167
6.772095536806645769662296e-170
2.456816303029940764350137e-172
7.378456594171517561289293e-175
1.761136750323663694180059e-177
3.132179049399378335302869e-180
3.689718069860489832387411e-183
2.159302812926180237357553e-186
0
0
0
0
0
0
0
0
0
0
0
0
0
0
0
0
0
0
0
0
0
0
0
0
0
0
0
0
0
0
0
0
0
0
0
0
0
0
0
0
0
0
0
0
0
0
0
0
0
0
0
0
0
0
0
0
0
0
0
0
0
0
0
0
0
0
0
0
0
0
0
0
0
0
0
0
0
0
0
0
0
0
0
0
0
0
0
0
0
0
0
0
0
0
0
0
0
0
0
0
0
0
0
0
0
0
0
0
0
0
0
0
0
0
0
0
0
0
0
0
0
0
0
0
0
0
0
0
0
0
0
0
0
0
0
0
0
0
0
0
0
0
0
0
0
0
0
0
0
0
0
0
0
0
0
0
0
0
0
0
0
0
0
0
0
0
0
0
0
0
0
0
0
0
0
0
0
0
0
0
0
0
0
0
0
0
0
0
0
0
0
0
0
0
0
0
0
0
0
0
0
0
0
0
0
0
0
0
0
0
0
0
0
0
0
0
0
0
0
0
-1.048828350115867329229946e-25
-6.881420440705430010120722e-23
-1.131423643584580178189674e-21
-9.307928100755027725600974e-21
-5.075202259167175296050263e-20
-2.060338606514044480526168e-19
-6.638423616686254890534005e-19
-1.767633998617573359941641e-18
-3.999681149944802330810203e-18
-7.848977676852200865187961e-18
-1.356796799843887736578587e-17
-2.091586594455958223223173e-17
-2.904311694543089366616128e-17
-3.662953792016618305223827e-17
-4.225688278575241577426097e-17
-3.628560917228216878978068e-17
-3.074318868286470790674463e-17
-2.569120929407404992774582e-17
-2.116803535459884713907669e-17
-1.718986962242995521637938e-17
-1.375287610767320844232428e-17
-1.08361321951393513940783e-17
-8.405131627470479921507079e-18
-6.415541302435856848206189e-18
-4.816925254025214921481101e-18
-3.556185786814650108941068e-18
-2.580528449937726593821868e-18
-1.83982607376191051056067e-18
-1.288328280144641036847564e-18
-8.857281444291065449309609e-19
-5.976503333400755819283834e-19
-3.95661058587393181426962e-19
-2.569184903374252322241163e-19
-1.635843892783266156654834e-19
-1.021070316950417299083967e-19
-6.246636297937796004282583e-20
-3.744913999412563951605157e-20
-2.199842385993459604608425e-20
-1.266096151877232644177894e-20
-7.139401833025014025694013e-21
-3.944529487909133446894485e-21
-2.135542509832419897815724e-21
-1.133089158212377880518452e-21
-5.893123941668393748504393e-22
-3.005050936588903486784386e-22
-1.502776194674491714175799e-22
-7.372111151847113004194614e-23
-3.548669012764223615527657e-23
-1.676611641065068741918671e-23
-7.776797684787316864684194e-24
-3.542124062506332486470286e-24
-1.584511370762533784573799e-24
-6.962201242168358382446048e-25
-3.004989475828424255334346e-25
-1.274041169707357871229288e-25
-5.305674420618179091710453e-26
-2.170009995292274236186451e-26
-8.715080627122075265589939e-27
-3.436167156861778076461216e-27
-1.329714812643256610727751e-27
-5.04892825716129245497676e-28
-1.880449950505459550328077e-28
-6.867599552648595655712057e-29
-2.458574110188044720690756e-29
-8.624802310052616702388071e-30
-2.963834930526980277624285e-30
-9.973539469744079475596272e-31
-3.285386687554036121589942e-31
-1.059050199916093503714337e-31
-3.339557231224504722658476e-32
-1.029792271755075517669532e-32
-3.104124292298860567893677e-33
-9.142998554302043588644562e-34
-2.630367259372702415198283e-34
-7.387912693034299483949813e-35
-1.240183431998519084702762e-35
-2.003094715657044464531417e-36
-3.110927401432974965746068e-37
-4.640965910050283165239459e-38
-6.640204352434549358626075e-39
-9.090522566231049385791626e-40
-1.186514782962531945871289e-40
-1.468198041110231848106455e-41
-1.706337568543604954912182e-42
-1.831525261141189615120581e-43
-1.753953748102618096638358e-44
-1.369164786370310045827505e-45
-5.688276365066021790478389e-47
7.439464802251434272459214e-48
2.636471266993582685698812e-48
5.12839040936126606180135e-49
8.17719245216838478132486e-50
1.167090245900241868048934e-50
1.543064850627411258882354e-51
1.922414726549046694385577e-52
2.278902885068511717220424e-53
2.586281188524703824029619e-54
2.821477371184956202862249e-55
2.967435716690919740567883e-56
3.015129721875749893897478e-57
2.964422513837229374350181e-58
2.823673600186190371656874e-59
2.608225199551787677260797e-60
2.338093971594488412057314e-61
2.035304609662986160537478e-62
1.721314166431457017705166e-63
1.414899215828412148459099e-64
1.130740978150540668436006e-65
8.787849836044852022641978e-67
6.643087283818726881321116e-68
4.885295566068630274182803e-69
3.495372168983356602684325e-70
2.433382491616349009039342e-71
1.648392490787012314956954e-72
1.086552443721270735953981e-73
6.969085798235913810134428e-75
4.349314664050119485995723e-76
2.64095457354425990421606e-77
1.560135165382954117181621e-78
8.96565894601856582958912e-80
5.011527923182069036920652e-81
2.724377855420343979142963e-82
1.44014860537440812803837e-83
7.40143547854314609559458e-85
3.697529377756263132227546e-86
1.795168138839962525629489e-87
8.468366792831872056110254e-89
3.880527324655211289862288e-90
1.726895627802414690094568e-91
7.46114327448555557684964e-93
3.128816169004737396098984e-94
1.273072043288725767622053e-95
5.024330355109993217038946e-97
1.922650727501936882735049e-98
7.131068715957236118958086e-100
2.562510465633393871517987e-101
8.91758936252775453722844e-103
3.004018861382102138086538e-104
9.790877871475325368452484e-106
3.085900419398123211657481e-107
9.400418136193797267572171e-109
2.766090146411424548206595e-110
7.857283061782197764456444e-112
2.153184724734574925474266e-113
5.688404067357417533549502e-115
1.447695662182233453539228e-116
3.546479870089857833726216e-118
8.355706176243264769829391e-120
1.891648548759113030195647e-121
4.110997818459752686680682e-123
8.567424291178420365034728e-125
1.710259114182962595840274e-126
3.266303174329211868001002e-128
5.96027169153133600352035e-130
1.037708668949024732164854e-131
1.721141479713127488610958e-133
2.714949333873937894803504e-135
4.065516225686653822992472e-137
5.767749421157824233965194e-139
7.735236958323108230630057e-141
9.782631338523203582536834e-143
1.163517384748728307210439e-144
1.29749990782918716743257e-146
1.352004021772541893659555e-148
1.311320820846549607198532e-150
1.178662132524714802992361e-152
9.768342523663651791025539e-155
7.420771831410221181549636e-157
5.131803768292371665673669e-159
3.204069204567510478753208e-161
1.7881408994802418195747e-163
8.81041094713277022075156e-166
3.772828381642896878052355e-168
1.375563181685409039731881e-170
4.151670533726333088302426e-173
9.958311306216107517949536e-176
1.77975564039350395345595e-178
2.106755897325336573733965e-181
1.238876518233544479022689e-184
0
0
0
0
0
0
0
0
0
0
0
0
0
0
0
0
0
0
0
0
0
0
0
0
0
0
0
0
0
0
0
0
0
0
0
0
0
0
0
0
0
0
0
0
0
0
0
0
0
0
0
0
0
0
0
0
0
0
0
0
0
0
0
0
0
0
0
0
0
0
0
0
0
0
0
0
0
0
0
0
0
0
0
0
0
0
0
0
0
0
0
0
0
0
0
0
0
0
0
0
0
0
0
0
0
0
0
0
0
0
0
0
0
0
0
0
0
0
0
0
0
0
0
0
0
0
0
0
0
0
0
0
0
0
0
0
0
0
0
0
0
0
0
0
0
0
0
0
0
0
0
0
0
0
0
0
0
0
0
0
0
0
0
0
0
0
0
0
0
0
0
0
0
0
0
0
0
0
0
0
0
0
0
0
0
0
0
0
0
0
0
0
0
0
0
0
0
0
0
0
0
0
0
0
0
0
0
0
0
0
0
0
0
0
0
0
0
0
0
0
0
-9.089357406235034028864322e-25
-2.961516512246425175292113e-22
-4.773698589464073997832956e-21
-3.881464374185982595552225e-20
-2.095284840069787960472882e-19
-8.423980508848617430429932e-19
-2.687535312586124455016204e-18
-7.082630171218226155930011e-18
-1.585104522860877903037907e-17
-3.074119679500688645332019e-17
-5.246813166748940177157544e-17
-7.993460494067780375011355e-17
-1.105547550214901103693957e-16
-1.417968710169572534369444e-16
-1.724007139328717339316499e-16
-1.550800689551409463130461e-16
-1.380764709970680325190256e-16
-1.217170226454300601598523e-16
-1.06245386914156065703591e-16
-9.182343853775574403479846e-17
-7.854093017813913531256085e-17
-6.643133585925969839497941e-17
-5.549077999386645040905958e-17
-4.569617641696842563965775e-17
-3.701882062676047709774337e-17
-2.943091580978441142356817e-17
-2.290464547943643533023536e-17
-1.740574397921180785168219e-17
-1.288516671300106486393532e-17
-9.272762075885351979046402e-18
-6.475719478068855497729265e-18
-4.382563079889593666429259e-18
-2.87145867808500339114788e-18
-1.820363142231316832304295e-18
-1.116385765005781772421294e-18
-6.624638108244032820416041e-19
-3.805939869178251384454592e-19
-2.11905282619605558427698e-19
-1.144972339711191048549106e-19
-6.014132465173298705869775e-20
-3.077305931357902922211737e-20
-1.537444815436009802555063e-20
-7.51873689883990899839046e-21
-3.608329343916282039557503e-21
-1.70342860133090700700826e-21
-7.926891664959446561599422e-22
-3.642044564262062628080352e-22
-1.653896260155835049778229e-22
-7.426708479751768577002875e-23
-3.297518454175914662498588e-23
-1.447048057596347749855362e-23
-6.271510111516654713470621e-24
-2.682183887525830729928981e-24
-1.130986007103725944821123e-24
-4.698119536757047087628701e-25
-1.921189803825276016267761e-25
-7.728860074243871928342667e-26
-3.057126846917251511498821e-26
-1.188352263716999578830639e-26
-4.537437910544485583489497e-27
-1.701070452445179883829188e-27
-6.258921621125326995307013e-28
-2.259256421162590526463355e-28
-7.99733326340764372424101e-29
-2.775006436896436884112063e-29
-9.435122105836242137285195e-30
-3.142108491658065307249305e-30
-1.024494590091901806371156e-30
-3.269160354091977974811651e-31
-1.020519216878500870986e-31
-3.115157269108883638553495e-32
-9.294374537513756026438631e-33
-2.709178045321226060911933e-33
-7.711002191599729198609608e-34
-2.14187756697248329024882e-34
-3.50972562701670787483758e-35
-5.53073615283082839036783e-36
-8.373122364840916923394867e-37
-1.215997793179150145584004e-37
-1.6902183873397237620738e-38
-2.240992919336034217422246e-39
-2.819177632859317651243578e-40
-3.335894285127343192526975e-41
-3.656066864113326860449545e-42
-3.598127017130617446753512e-43
-2.942764711744037193539896e-44
-1.452537507355491678641822e-45
1.097810729006594371102997e-46
4.883069189073960536110918e-47
9.986749638436953702489866e-48
1.636521415390144637114295e-48
2.382487134698600601917585e-49
3.2019381634422522388042e-50
4.047074196684853463178745e-51
4.861367730487286151398771e-52
5.585791472088529800339453e-53
6.165883982266351955278917e-54
6.558480420037256883465108e-55
6.736960245338922506765722e-56
6.694136864078701474365561e-57
6.442370968111490374618886e-58
6.011019153748133565621047e-59
5.441807483376866409392481e-60
4.783041569937745678546228e-61
4.083672953800578476910547e-62
3.388136072921308338231608e-63
2.73260204127746867778115e-64
2.142946744478675457958043e-65
1.634388775572943795390081e-66
1.212487322313213528943774e-67
8.750397149080819780461939e-69
6.143871931757188500342904e-70
4.197024098639399160455356e-71
2.789550100726177172021803e-72
1.803919976414507598832729e-73
1.13495130440750850051922e-74
6.946894603683193817238024e-76
4.136425279955354104392054e-77
2.395738494031959939337414e-78
1.349533975920943356774524e-79
7.392661284890471110473304e-81
3.937539515415685873030071e-82
2.038839507354289555082499e-83
1.026111148733399269324088e-84
5.018462440192405214544495e-86
2.384601859216845858289391e-87
1.100591886444583655142607e-88
4.932764744279226064939613e-90
2.146290771562317043929386e-91
9.06343607677242958541393e-93
3.713358584525254305236059e-94
1.4755883625422404787923e-95
5.685035709305608582662406e-97
2.122786892756605075346024e-98
7.679097076466011625066072e-100
2.690041629649810217418248e-101
9.121284527081868637772846e-103
2.992210112933071939961501e-104
9.491726767807587602182668e-106
2.909910157497537598755365e-107
8.616769796814559944455587e-109
2.463051001568229873655864e-110
6.791764948958839967542828e-112
1.805385935822907346885262e-113
4.622888783955187321609549e-115
1.139380806688092522961604e-116
2.700653235065235922584655e-118
6.150632362733410434445064e-120
1.344621179584293725159755e-121
2.818749113130322744434061e-123
5.659810487959548550927555e-125
1.087203875978777011128185e-126
1.995336168213533685104074e-128
3.493834023514307980004594e-130
5.827761568931935935510655e-132
9.244579446295406959207217e-134
1.392077673087798993258213e-135
1.985906812118135228313289e-137
2.678017672551318087221172e-139
3.40538097516143486178577e-141
4.072266570787382453434052e-143
4.565699184634985410415101e-145
4.7829752308843334675177e-147
4.663726399546641512197477e-149
4.214066413993041733531695e-151
3.510791539141007507682564e-153
2.680956320867334358057749e-155
1.863595986676979386153849e-157
1.169524791091952465391569e-159
6.560244623644663005262442e-162
3.248705351453726672965621e-164
1.398177619702527252282967e-166
5.123213061598510767442111e-169
1.553949621664157881322689e-171
3.74574048847038463093778e-174
6.727228856247450501543244e-177
8.002025476473695330749162e-180
4.728352111151051203240123e-183
0
0
0
0
0
0
0
0
0
0
0
0
0
0
0
0
0
0
0
0
0
0
0
0
0
0
0
0
0
0
0
0
0
0
0
0
0
0
0
0
0
0
0
0
0
0
0
0
0
0
0
0
0
0
0
0
0
0
0
0
0
0
0
0
0
0
0
0
0
0
0
0
0
0
0
0
0
0
0
0
0
0
0
0
0
0
0
0
0
0
0
0
0
0
0
0
0
0
0
0
0
0
0
0
0
0
0
0
0
0
0
0
0
0
0
0
0
0
0
0
0
0
0
0
0
0
0
0
0
0
0
0
0
0
0
0
0
0
0
0
0
0
0
0
0
0
0
0
0
0
0
0
0
0
0
0
0
0
0
0
0
0
0
0
0
0
0
0
0
0
0
0
0
0
0
0
0
0
0
0
0
0
0
0
0
0
0
0
0
0
0
0
0
0
0
0
0
0
0
0
0
0
0
0
0
0
0
0
0
0
0
0
0
0
0
0
0
0
0
0
0
0
-4.027921868919403020392896e-24
-8.467084816250513314310806e-22
-1.335970080521612455261303e-20
-1.072739083045610385472829e-19
-5.729705953163338942685042e-19
-2.280279039870791564960654e-18
-7.20035549178030200902558e-18
-1.877282909842018365054035e-17
-4.153748255580617396000807e-17
-7.9576894368698673179554e-17
-1.340321785745626425788213e-16
-2.015225912185710623795869e-16
-2.761771637351686270756827e-16
-3.641977142894212617745442e-16
-5.075797353221165641349267e-16
-4.950761095254231140881378e-16
-4.83062002507201154862375e-16
-4.720143301590471395903046e-16
-4.618321411976875385240309e-16
-4.516994075761118951487804e-16
-4.400460611093293280830192e-16
-4.24708919804646090904445e-16
-4.033693477631918094606599e-16