# geometry NO_DATA 876
#  x  y  z
1.597762690616958636269374 0.036576143701741316294207 0.9388134530847829228861201
1.595525381233916739631695 -0.01666666666666665602702935 0.941050762467828816326687
1.597762690616958636269374 0.003242810368407982122423983 0.9388134530847829228861201
1.591050762467833168400944 0.007717429134500038319377513 0.9455253812339163843603274
1.58881345308479149380787 -0.02114128543274979704635896 0.9477626906169582809980056
1.58881345308479193789708 0.03657614370174986501149661 0.9477626906169582809980056
1.593288071850873954815597 -0.04552538123391650093374494 0.938813453084786253555194
1.588813453084790605629451 -0.04552538123391650093374494 0.9432880718508738215888343
1.588813453084790605629451 0.04552538123391650787263885 0.9432880718508738215888343
1.593288071850874176860202 0.04552538123391650787263885 0.938813453084786253555194
1.642589997830882886376003 0.005539986985282620464421388 0.9129499891543999545717725
1.635179995661765417480638 -0.01666666666666665602702935 0.920359991323523751738378
1.642589997830882886376003 -0.02779334634805071674312771 0.9129499891543999545717725
1.620750638378141594841964 -0.01219204790058129629637396 0.9329426862787224550288556
1.613731283263634797009445 0.001846662328431889323401838 0.9381153790647971391081228
1.627769993492646616317643 -0.03517999566176520376270531 0.9129499891544052836422907
1.611493973880592012193347 -0.03070537689567984229732645 0.935878069681752244868278
1.611103326825980008862871 -0.03517999566176520376270531 0.9232953747265588706483186
1.613340636209022793678969 0.03070537689567986311400816 0.9255326841096038759104658
1.604083971711473655119562 0.0455253812339146551879665 0.9284680675126337767721907
1.627769993492647060406853 0.03517999566176521764049312 0.9129499891544053946645931
1.60223730938304287363394 0.03657614370173946360953465 0.9388134530847820347077004
1.604474618766085658450038 0.007717429134491488734726161 0.9410507624678269289475452
1.60223730938304287363394 -0.02114128543275649654842319 0.9388134530847820347077004
1.692105386185610349514263 0.002632317113649986460577335 0.91052693092803926866452
1.684210772371220743437448 -0.01666666666666666296592325 0.918421544742435203012576
1.692105386185610349514263 -0.03070101621968334554280133 0.91052693092803926866452
1.67495410787367338123488 -0.001846662328428208890707118 0.9268007702021013871629407
1.673592057190515181019919 0.0008774390378876660264231835 0.9272853818473716369652493
1.676316158556830027137607 -0.03421077237122099878874337 0.9105269309280443756904333
1.666182055021396379856924 -0.01939076803298254297880376 0.9198753796782496161554832
1.659649491890163419682835 -0.03421077237122099878874337 0.9114961542185886500533343
1.667059494059282442890435 0.01939076803298254644825072 0.9189061563877105598407979
1.658287441207005219467874 0.03517999566176154696561795 0.9119807658638587888333404
1.676316158556830027137607 0.03421077237122100572763728 0.9105269309280443756904333
1.657410002169119156434363 0.005539986985278952391631435 0.9129499891543979561703281
1.664820004338238179641962 -0.01297334200981592813861631 0.9203599913235198659577918
1.657410002169119156434363 -0.03148667100491080172997016 0.9129499891543979561703281
1.742011617248324650830682 0.002069703489931306022303614 0.9100580862416062233322123
1.734023234496649523705969 -0.01666666666666667684371106 0.9180464689932904542857273
1.742011617248324650830682 -0.03126362984340202988420288 0.9100580862416062233322123
1.725251181644373854595642 -0.0008774390378847073471146878 0.9261286206822585409526027
1.724467511543773534654633 0.0006899011633165146430493597 0.9262223896195426187105681
1.726034851744971732045997 -0.03402323449664987342622169 0.9100580862416125516034526
1.716572897729382152220978 -0.01823400686786789612336968 0.9183277758051482386747466
1.709368185078305124591225 -0.03402323449664986648732778 0.9102456241161862582345066
1.71726279889269606293567 0.01823400686786787877613492 0.918140237930580860314933
1.708584514977704582605611 0.0342107723712180220032586 0.9103393930534704470147744
1.726034851744971954090602 0.03402323449664985954843388 0.9100580862416125516034526
1.707894613814390893935524 0.002632317113647003603560393 0.9105269309280379363968905
1.715789227628781832279969 -0.01491178859090436237266886 0.9184215447424322054104096
1.707894613814390893935524 -0.03245589429545570753221639 0.910526930928037825374588
1.791995056066414848672252 0.001970336398462466196562781 0.9099752803320472205328429
1.783990112132829874980189 -0.01666666666666667684371106 0.9179802242656461830350167
1.791995056066414848672252 -0.03136299693487087231202892 0.9099752803320472205328429
1.775311828217840393051574 -0.0006899011633128729163721982 0.9260017293811531047253993
1.774638488236435662770418 0.0006567787994968177136406728 0.9260182905630611749359105
1.775985168199239794262212 -0.0339901121328301733526267 0.9099752803320559912947374
1.766650105484758537244261 -0.01801334662947636638952176 0.9180299078113788313615373
1.75931850153257318680744 -0.0339901121328301664137328 0.9100084026958805694107468
1.767306884284250090288992 0.01801334662947635251173395 0.9179967854475630240074224
1.758645161551168456526284 0.03402323449664619581245262 0.910024963877788639621258
1.775985168199239794262212 0.0339901121328301664137328 0.9099752803320561023170399
1.757988382751676903481552 0.002069703489927636648471054 0.9100580862416044469753729
1.765976765503353806963105 -0.01528686434005189706542005 0.9180464689932869015720485
1.757988382751676903481552 -0.03264343217003141950360856 0.9100580862416044469753729
1.842025410117077210969683 0.002152460702419306017019185 0.9101270505853420456077174
1.834050820234154333121523 -0.01666666666666667684371106 0.9181016404682865728048569
1.842025410117077210969683 -0.03118087263091402772108296 0.9101270505853420456077174
1.825389097501075585938679 -0.0006567787994909101128432338 0.9260458763005661175782279
1.824701964650919494559389 0.0007174869008208500237300242 0.9260155222499011351544596
1.826076230351222573489167 -0.03405082023415420544587562 0.9101270505853549241948031
1.816697020717331856332066 -0.01804093236697843979920997 0.9180105783163052812767546
1.80940956368455574398979 -0.03405082023415420544587562 0.9100663424840385040681667
1.817414507618143826306323 0.0180409323669784155130813 0.9180712864176344689681741
1.808722430834399874655105 0.03399011213282422672055105 0.9100359884333735216443984
1.826076230351222573489167 0.03405082023415419156808781 0.9101270505853549241948031
1.808004943933587682636244 0.001970336398456527804423644 0.9099752803320442229306764
1.816009887867175764952776 -0.01535310906770104288909806 0.9179802242656400768083813
1.808004943933587682636244 -0.03267655453385859970483196 0.9099752803320442229306764
1.892128996498516402269274 0.002773978991031782973669673 0.9106449824925149094667631
1.884257992997033115400995 -0.01666666666666667337426411 0.9185159859940323912042004
1.892128996498516402269274 -0.03055935434230154859602813 0.9106449824925149094667631
1.875565916213294048731086 -0.0007174869008108536796997079 0.9262834031141051749358439
1.874744842931038713018665 0.0009246596637000597390665391 0.9261798167326605879523527
1.876386989495534951544187 -0.03425799299703340128342433 0.9106449824925342273473916
1.866770253048111172233803 -0.01830881323117758766039209 0.9182052268497211677811265
1.859720322828868344089415 -0.03425799299703340128342433 0.9104378097296677019301114
1.867694912711796328963487 0.01830881323117757378260428 0.9184123996126071221013376
1.858899249546613008376994 0.03405082023414417180529057 0.9103342233482230039243177
1.876386989495534951544187 0.03425799299703340128342433 0.9106449824925342273473916
1.857974589882928073691915 0.002152460702409282784774991 0.9101270505853369385818041
1.865949179765855614476777 -0.01523169286506823212612449 0.9181016404682763587530303
1.85797458988292785164731 -0.03261584643254573229187443 0.9101270505853369385818041
1.942496854054013510904042 0.004981124323949504342778916 0.9124842702699360597051736
1.934993708108027066217005 -0.01666666666666667684371106 0.9199874162159880075506635
1.942496854054013510904042 -0.02835220900938383026268497 0.9124842702699360597051736
1.926198044942851739236289 -0.0009246596636840288341643856 0.927122704606535563698344
1.924905527723663078987215 0.001660374774693420792462395 0.9267548470510309499559298
1.927490562162009313240674 -0.03499370810802676645678844 0.9124842702699702545743321
1.917034524222171576468554 -0.01925170110504412224194937 0.9188838435495212397796649
1.910823895495342483741297 -0.03499370810802676645678844 0.9117485551590081005457478
1.918694898996833986259958 0.01925170110504410836416156 0.9196195586605178107220127
1.909531378276153379403013 0.03425799299701734468293068 0.9113806976035034868033335
1.927490562162009091196069 0.03499370810802676645678844 0.9124842702699702545743321
1.907871003501491191656214 0.002773978991015726373176031 0.9106449824925070268832883
1.91574200700298291621948 -0.01481734733933496445112965 0.9185159859940166260372507
1.907871003501491191656214 -0.03240867366968563922924318 0.9106449824925070268832883
1.994767149317473453606908 0.0186028959044999761540673 0.9238357465870264961793623
1.989534298634946907213816 -0.01666666666666666990481716 0.9290685972697232397621292
1.994767149317473453606908 -0.01473043742883336018612006 0.9238357465870264961793623
1.980370777914282287568426 -0.00166037477466327476789687 0.9320311526889449860178161
1.976440107876144214316128 0.006200965301613417524073668 0.9297608574254698776684336
1.984301447952328434354285 -0.03953429863494676427260188 0.9238357465871049889472033
1.968936961930142226506746 -0.02452800674294336805147942 0.9222577114794330288560786
1.967634781285661826899513 -0.03953429863494676427260188 0.9192951560602896643459303
1.97513792723166359266429 0.02452800674294335417369162 0.9267983020063266241805877
1.96370411124752353160261 0.03499370810799659614609425 0.9170248607968145559965478
1.984301447952328434354285 0.03953429863494676427260188 0.9238357465871047669025984
1.957503145946002165445066 0.004981124323919339236255155 0.9124842702699209606720387
1.965006291892003931209842 -0.01334591711741060261753322 0.9199874162159578094843937
1.957503145946002165445066 -0.03167295855874053406298074 0.9124842702699209606720387
2.026164253412527926911935 -0.01860289590490833006031224 0.9447671493174363277489647
2.020931402730109738286046 0.004264736063297445284314691 0.9395342986348724778622454
2.026164253412527926911935 0.02713236803150322409838857 0.9447671493174363277489647
2.015698552047545888399327 -0.03953429863487244177999713 0.934301447952212815728501
2.015698552047545888399327 0.03953429863487244871889104 0.9343014479522127047061986
2.005232850682563849886719 0.0186028959044256571309095 0.9238357465869893037080374
2.010465701365127699773439 -0.004264736063780125152611333 0.9290685972696490768640842
2.005232850682563849886719 -0.02713236803198589702779131 0.9238357465869893037080374
1.542283403064013569405688 0.003700418384085860795673639 0.9614170153200718438313288
1.53456680612802731644706 -0.01666666666666666296592325 0.9691336122560564314554199
1.542283403064013569405688 -0.02963291494924746860561982 0.9614170153200718438313288
1.518828067684874216780599 -0.014810810219639453100271 0.9845668061280274940827439
1.510805926177707592117372 -0.03271094968100043270942123 0.992283403064013747041372
1.510805926177707592117372 0.003089329241721530845687926 0.992283403064013747041372
1.526850209192038620997778 -0.03456680612802763563617958 0.9614170153200678470284402
1.511111470748885743375922 -0.03456680612802764951396739 0.9768502091920386876111593
1.511111470748885743375922 0.03456680612802764951396739 0.9768502091920386876111593
1.526850209192038620997778 0.03456680612802764951396739 0.9614170153200678470284402
1.587405677616829269283016 0.000427259432474968526075032 0.9630215818156457885379496
1.58152328338277081698493 -0.01219204790059161443160907 0.9693312354821791432257783
1.574810523035125697788317 -0.001233472794698658656087353 0.9760439958298242624223917
1.573980156921538808845185 0.0004272594324749636471652559 0.9764471025109361379534789
1.57340357976567379871824 -0.02928597399973324050259649 0.9612115318650822359813901
1.577048664616686579620364 -0.045525381233924945567626 0.9526645688155113145256792
1.566263559985554554288001 -0.01832739889384028472707477 0.9687305055749491078387337
1.558974222482044424964442 -0.03376059276580828383274024 0.9602076952767403250632583
1.566690819418028457477021 0.01832739889384029513541563 0.9679242922127273551780036
1.558143856368457758065915 0.03456680612803199326155124 0.9606108019578522005943455
1.585168368233783375842449 0.02928597399973325091093734 0.9607842724326083327923698
1.571166270382628127322278 0.03376059276580829771052805 0.9589742224820445581912054
1.591050762467841828140536 -0.0166666666666666594964763 0.9544746187660750891268435
1.588813453084795934699969 0.003242810368424985881935507 0.9522373093830374113366588
1.588813453084795934699969 0.03657614370175832352316547 0.9522373093830374113366588
1.557716596935983854876895 0.003700418384090210181108782 0.9614170153200740642773781
1.565433193871968109434079 -0.01419972107727511707875312 0.9691336122560609833698209
1.557716596935983854876895 -0.03209986053864044563965763 0.9614170153200740642773781
2.041901743343365716043536 0.001410460060143675295463161 0.9595087167167770658693371
2.033803486686732053811966 -0.0166666666666666525575824 0.9676069733734380395873131
2.041901743343365716043536 -0.03192287327318965584055377 0.9595087167167771768916396
2.025301032560757441558508 -0.000338241585282737290164834 0.9756392741460406803355454
2.02489683509141649153662 0.0004701533533994135295730477 0.9755733182619823473658016
2.024266962057389207529923 -0.02333778532198295396771215 0.9638012606924077907422088
2.035700778041681147101372 -0.03380348668673271994578045 0.9590385633634049833418089
2.021965473233099164218629 -0.007009360240599037290831763 0.9723037148183825140179692
2.021965473233099164218629 0.007009360240599078924195187 0.9723037148183825140179692
2.024266962057389207529923 0.02333778532198298172328776 0.9638012606924079017645113
2.035700778041681147101372 0.03380348668673273382356825 0.9590385633634049833418089
2.026164253412338744908539 -0.01860289590528611813891047 0.9552328506823748455190071
2.020931402729731374279254 0.004264736063297460896825974 0.9604657013647496244246327
2.026164253412338744908539 0.02713236803188102952422156 0.9552328506823748455190071
2.01862991390544088687875 0.0003382415852827789235282574 0.9689681554907243477003931
2.021561275763758214196741 -0.006200965301916886579514099 0.9722377589343241810482255
2.092111808572204356693192 0.002670851433151864330606262 0.9605590428609472875010056
2.084223617144409068657751 -0.01666666666666666990481716 0.9684472342887802120969809
2.092111808572204356693192 -0.03066248190018147981583674 0.9605590428609472875010056
2.075655207134382784772697 -0.000470153353385024432020689 0.9761253604877678791140738
2.074974988552152677101503 0.0008902838110754942701347003 0.9759152952589225105128889
2.076335425716589355715769 -0.03422361714440882995980076 0.9605590428609607211996035
2.066876731895511909442575 -0.01802710383112718361964255 0.9678170386022688642668754
2.059668759049922748260997 -0.03422361714440881608201295 0.9601389124032948529929854
2.067767015706563515919925 0.01802710383112719055853646 0.9682371690599484992389989
2.058988540467692196500593 0.03380348668671837031318717 0.9599288471744494843918005
2.076335425716589355715769 0.03422361714440882995980076 0.9605590428609609432442085
2.058098256656640590023244 0.001410460060129306580911646 0.9595087167167699604419795
2.066196513313281357682172 -0.01572635995992239035801141 0.967606973373423606687993
2.058098256656640590023244 -0.03286317997997408035804057 0.9595087167167699604419795
2.143378137543414219123861 0.01026882526031283084100298 0.9668906877168983449166717
2.136756275086828527065563 -0.01666666666666666296592325 0.9735125501735707453931923
2.143378137543414219123861 -0.0230645080730205037644609 0.9668906877168983449166717
2.127977799847964313073589 -0.0008902838110615527312391437 0.9788680836590262224206072
2.125821187065686235229123 0.003422941753495499159209992 0.977601754687809187949199
2.130134412630167339841591 -0.03675627508682882682577997 0.9668906877169096691915229
2.117932995637883397677115 -0.02097989223122372071106412 0.9697135632599832577582788
2.113467745963501176476029 -0.03675627508682884070356778 0.9643580297745392160280176
2.121355937391303569938827 0.02097989223122372418051107 0.9722462212023651462189378
2.111311133181222210453143 0.03422361714439489666084171 0.9630917008033221815566094
2.130134412630167339841591 0.03675627508682883376467387 0.9668906877169096691915229
2.10788819142780248228064 0.002670851433137930164285478 0.960559042860940182073648
2.115776382855605319832648 -0.01488609904459029659173908 0.9684472342887662232868706
2.10788819142780248228064 -0.03244304952231852334776363 0.9605590428609402930959504
2.183160918932244065615578 -0.01021721861116364760135866 0.9933781375434078686481598
2.176513253151009852359721 0.009872389808985580425537698 0.9867562750868157372963196
2.183160918932244065615578 0.02996199822913481192188101 0.9933781375434078686481598
2.169891390694417943052485 -0.03675627508681589272754309 0.9801344126301497761133419
2.169891390694417943052485 0.03675627508681589966643699 0.9801344126301497761133419
2.156621862456591820489393 0.01026882526029989500804263 0.966890687716891683578524
2.163243724913183729796629 -0.009820783159849331284130258 0.9735125501735577557838042
2.156621862456591820489393 -0.02991039157999855757630314 0.966890687716891683578524
1.492262903364241610759677 0.002985463135717750238207202 1.010722559771476181111893
1.484525806728483221519355 -0.01666666666666665602702935 1.018755634932100306855318
1.492262903364241610759677 -0.03034787019761558957142711 1.010722559771476181111893
1.469051613456957561254512 -0.01428171987638459858316331 1.034525806728482599794461
1.461314516821190068185388 -0.03214085993820101072593332 1.042262903364241211079388
1.461314516821190068185388 0.003577420185431806620712791 1.042262903364241211079388
1.476788710092717282762464 -0.0345258067284830716392463 1.011018538296334368098428
1.461314516821191400453017 -0.0345258067284830716392463 1.026788710092716883082176
1.461314516821191400453017 0.03452580672848308551703411 1.026788710092716883082176
1.476788710092717282762464 0.03452580672848309939482192 1.011018538296334368098428
1.508976208545355968126955 -0.03437664253298702149441723 1.008048280321842238294039
1.508048280321842238294039 -0.03437664253298701455552333 1.008944775192126330765063
1.508048280321842238294039 0.03437664253298702149441723 1.008944775192126330765063
1.508976208545355968126955 0.03437664253298701455552333 1.008048280321842238294039
1.509667535180533537442216 -0.03252078608595980468987108 1.007811678733506299820988
1.516551285690526329474892 -0.01481081021963944963082405 1.015623357467012599641976
1.509667535180533537442216 0.002899165646680895887243867 1.007811678733506299820988
1.515623357467012599641976 -0.01487367692609867578235061 1.016519852337296692113
1.507811678733506299820988 0.002836298940221674506206861 1.009604668474074262718432
1.507811678733506299820988 -0.03258365279241902390250374 1.009604668474074262718432
2.191958222587040872042508 0.001782526883285125152145412 1.009824304296244257272974
2.183916445174081566449331 -0.01666666666666666990481716 1.017849486028683081428881
2.191958222587040872042508 -0.03155080645004820771859499 1.009824304296244257272974
2.175421041607382477423016 -0.0003241404667312350372856966 1.025745182074113248660296
2.174967415453642693989877 0.000583111840748147731462725 1.025615696387104813780411
2.178568190013375982516663 -0.02056890013039600409450181 1.015298661775549948771413
2.188561084158200387150828 -0.03391644517408148179482552 1.009224596774975779567285
2.173469924875517378382028 -0.004226373930460572587997081 1.023794065342248593708518
2.173469924875517378382028 0.004226373930460575190082295 1.023794065342248593708518
2.178568190013375982516663 0.02056890013039601103339571 1.015298661775549948771413
2.188561084158199943061618 0.03391644517408148873371942 1.009224596774975779567285
2.18321282899749480321816 -0.01011339848066227994904942 1.006673772521842646909818
2.176617073281511327564886 0.009872389808985578690814222 1.013347545043685293819635
2.18321282899749480321816 0.02985817809863344080012482 1.006673772521842646909818
2.17151880814365272343025 0.0003241404667312386693629744 1.02184294861038393875674
2.17301629872177759494889 -0.003319121622981189602408225 1.023664579655240158828633
2.242710228561748841968893 0.006261371370430457092282062 1.01355114280868097154098
2.235420457123498128026995 -0.01666666666666666296592325 1.020840914246964103995197
2.242710228561748841968893 -0.02707196196290287751318182 1.01355114280868097154098
2.226784507886819586275351 -0.0006052318066903334759301658 1.027389739693509884688183
2.225438330088391758465605 0.002087123790164990919798749 1.026648793701772532926952
2.22811337843657897295202 -0.03542045712349832509158176 1.013533835560044948920222
2.217407612658403692762477 -0.01935902226352199245740238 1.018612551986362468880998
2.211446711769912365497248 -0.03542045712349832509158176 1.012046419291180665567254
2.219477429199900431200376 0.01935902226352199245740238 1.020082661006590729613208
2.210100533971484537687502 0.03393856514002367014137818 1.011305473299443313806023
2.22811337843657897295202 0.03542045712349832509158176 1.013533835560044948920222
2.208030717429988243338812 0.001804646849227313498698066 1.009835364279215275118418
2.21606143485997630904194 -0.01546725162412969020730991 1.017871605994625117119767
2.208030717429988243338812 -0.03273915009748669391331788 1.009835364279215275118418
2.286808026462884058105374 -0.005902202098862397057488227 1.04271022856174555570874
2.279338670388822762902237 0.01285158835796300531850722 1.035420457123491511097768
2.286808026462884058105374 0.03160537881478839988824703 1.04271022856174555570874
2.27204889895056894033587 -0.03542045712349206620928044 1.028130685685211709312625
2.27204889895056894033587 0.03542045712349207314817434 1.028130685685211709312625
2.257289771438253822566367 0.006261371370424204281512903 1.013551142808677640871906
2.264579542876507645132733 -0.01249241908640119809448255 1.020840914246957442657049
2.257289771438253822566367 -0.03124620954322660307256321 1.013551142808677640871906
1.476418439671470128615738 0.000451932552625057418552168 1.074033492881154794318377
1.476048169250203878632988 -0.001192473395157494500326556 1.074855695855046144870926
1.46757053177191054693651 -0.01576280156142885469083836 1.083785265885958359888264
1.459463164714883465222783 -0.03288140078072059740987854 1.091892632942979002308448
1.459463164714883465222783 0.001355797657862913398532645 1.091892632942979002308448
1.467940802193176574874656 -0.01831107261444923223203674 1.066748328798018841112594
1.460573975978671779074602 -0.03452580672849079462816135 1.058189029188372876078006
1.459463164714883243178178 -0.03378526588595842650164514 1.075677898828930612040722
1.459463164714883243178178 0.03378526588595841262385733 1.075677898828930612040722
1.46868134303569886078833 0.01831107261444919059867331 1.066296396245400179836338
1.460203705557405529091852 0.03378526588595839874606952 1.05901123216226400458595
1.46905161345696511077108 -0.01666666666666668378260496 1.065474193271508829283789
1.461314516821194064988276 -0.02975591314789382060834733 1.05773709663575421480175
1.461314516821194064988276 0.003577420185439502721413962 1.057737096635754436846355
2.291880449564964727926508 0.001675173321968908852347413 1.059794723757003787056874
2.28376089912993052166712 -0.01666666666666666296592325 1.067718036225949074236041
2.291880449564965616104928 -0.03165816001136442098262691 1.059794723757003787056874
2.27532986981240537005533 -0.0001953919683826748840416165 1.075525261780787555920824
2.275018390929915756970559 0.0004275657965964351674495458 1.07540917486668075042644
2.280968966004774500788699 -0.0184354546082743132873194 1.066209838492459205383511
2.28997291041061323824124 -0.03376089912992975838879062 1.059170919994317561219077
2.274445475841601282951387 -0.001964179909990323037033422 1.074640867809983912906091
2.274445475841601282951387 0.001964179909990326072799505 1.074640867809983690861486
2.280968966004774500788699 0.01843545460827431675676635 1.066209838492459205383511
2.28997291041061323824124 0.03376089912992975838879062 1.059170919994317561219077
2.287180977285457661452028 -0.005156300453714878113953279 1.057662722260827692366547
2.280084572033969969595546 0.01285158835796300358378375 1.065325444521655340324173
2.287180977285457661452028 0.03085947716964088094471208 1.057662722260827470321942
2.273561081870797639936654 0.0001953919683826779198076995 1.073756473839179825802148
2.274133996959112113955825 -0.001341222145011213093962477 1.074524780895876885367102
2.343489331608636483395003 0.01093598965179337981212804 1.067446658043156304529475
2.336978663217273766150583 -0.01666666666666666296592325 1.07395732643453323262861
2.343489331608636483395003 -0.02239734368153994958916542 1.067446658043156304529475
2.328301246537611390863276 -0.0006881666926579875368311101 1.078989413230269089893909
2.326134498249312176909598 0.003645329883940359814303855 1.077510831634628019060074
2.330185258411191728811218 -0.03697866321727368704719296 1.067163921628451639378454
2.318145248262308388831343 -0.02100016324326501107599974 1.069457218717651869610563
2.313518591744525565445656 -0.03697866321727368704719296 1.064142395507211347194243
2.321507841731529797613121 0.02100016324326501454544669 1.072196008424187052554544
2.311351843456226351491978 0.03402150002599131639602348 1.062663813911570054315803
2.330185258411191728811218 0.03697866321727369398608687 1.067163921628451417333849
2.30798924998700449862099 0.001935774218030462956452453 1.059925024205034649327217
2.315978499974008730788455 -0.01541905914129419047364777 1.067978637122010576732123
2.3079892499870049427102 -0.0327738925006188369648541 1.059925024205034427282612
2.38255334195681012232626 -0.0109359896518252414782113 1.093489331608635817261188
2.37604267356545095779552 0.009376006898779976755919918 1.086978663217271767749139
2.38255334195681012232626 0.02968800344938519325532766 1.093489331608635817261188
2.369532005174086908283471 -0.03697866321727188293477795 1.080467994825895505783819
2.36953200517408735237268 0.03697866321727188293477795 1.080467994825895505783819
2.356510668391364138329891 0.01093598965179157396498955 1.067446658043155416351055
2.36302133678272818784194 -0.0093760068988136425344182 1.07395732643453145627177
2.356510668391364138329891 -0.02968800344941885729910247 1.067446658043155416351055
1.475641659285081175312371 0.0003794534649092700718565896 1.124737794179827998775067
1.475605419741222501528455 -0.0004519325526265882035995003 1.12515348718859575782858
1.467425573596478516336106 -0.01590775973686085753566744 1.133712786798242388996982
1.459281966995593649016882 -0.03295387986843677924353457 1.141856393399121261111873
1.459281966995593649016882 0.001138360394715059401710144 1.141856393399121261111873
1.467461813140337412164627 -0.01749805268420250720096121 1.117009880587710668464752
1.459390685627168338101001 -0.03378526588595992530272838 1.108486820521922711080265
1.459281966995593649016882 -0.03371278679824257773489649 1.125569180197357299633154
1.459281966995593649016882 0.03371278679824259161268429 1.125569180197357299633154
1.467534292228053427464829 0.01749805268420253842598378 1.116630427122808022488698
1.45935444608330944227248 0.03371278679824259161268429 1.108902513530690470133777
1.46757053177191232329335 -0.0166666666666666525575824 1.116214734114040041390581
1.459463164714884353401203 -0.03197753567546889053030412 1.108107367057019843059607
1.459463164714884353401203 0.001355797657864446243564105 1.108107367057019843059607
2.392495994890364130469607 0.004975969342182728558099392 1.112479974451818343084142
2.384991989780728793846265 -0.01666666666666665602702935 1.119983979561455900153533
2.392495994890364130469607 -0.02835736399115060257791754 1.112479974451818343084142
2.376444863347420000110333 -0.0004275861999505784286079724 1.126872449547370980127425
2.375401742023746542997742 0.001658656447395656652332718 1.126256914423648503031927
2.378694666731114182312012 -0.02197065299800965779142281 1.115673329948390746224618
2.388850665006421181146834 -0.03499198978072896870639141 1.110821318004424629322102
2.373792870181748781988063 -0.005731572531293577590916222 1.12422045638169953996055
2.373792870181748781988063 0.005731572531293601009683147 1.124220456381699317915945
2.378694666731114182312012 0.02197065299800967166921062 1.115673329948390746224618
2.388850665006421181146834 0.03499198978072898258417922 1.110821318004424629322102
2.382553341956806125523372 -0.01093598965183404173040493 1.106510668391359475393187
2.376042673565442520100532 0.009376006898779983694813822 1.113021336782719306057743
2.382553341956806125523372 0.02968800344939400218113867 1.106510668391359475393187
2.371140877016077119776583 0.0004275861999506018473748981 1.121568463216028099793675
2.372749748858075324875472 -0.003645329883947343377337269 1.123604921257976840820447
2.437520025548177038388076 -0.004975969342187612672046004 1.142495994890364130469607
2.430016020438542145853944 0.01334935377187448923841373 1.134991989780728793846265
2.437520025548177038388076 0.03167467688593659375095868 1.142495994890364130469607
2.422512015328906365141393 -0.0349919897807287605395743 1.127487984671091236776874
2.422512015328906365141393 0.0349919897807287674784682 1.127487984671091236776874