# geometry NO_DATA 684
#  x  y  z
1.648211884131822957400004 0.04610517782079893295277273 1.04789329368897576877373
1.646423768263646003617851 -0.01666666666666650337136346 1.046264473042222142851188
1.648211884131822957400004 0.01277184448746560355147928 1.04789329368897576877373
1.645868288094192388726356 0.01555570632775992584440061 1.046423768263645692755404
1.647100923792915949661619 -0.01420139526921933639802553 1.048211884131822646537557
1.647100923792916171706224 0.04531280792473903196171392 1.048211884131822646537557
1.648103790119327616281453 -0.04642376826364576214434265 1.04794449489790375551479
1.647548309949874223434563 -0.04642376826364576214434265 1.048103790119327527463611
1.647548309949874223434563 0.04642376826364592867779635 1.048103790119327527463611
1.648103790119327616281453 0.04642376826364592867779635 1.047944494897903977559395
1.683870875352920126744038 0.01559158262749316473105843 1.032258249294159657694081
1.691935437676459930145256 0.03279579131374659589637233 1.040322811617699683139904
1.691935437676459930145256 -0.001612626058760254508031573 1.040322811617699683139904
1.683000898326667549298463 -0.0176050126972261480884363 1.032463356307080637463969
1.69153463366548728608052 -0.0338708753529200906617902 1.040459549626313595638294
1.674398793983540745244909 -0.03373413734430604632441586 1.040906165428783891613307
1.674398793983540745244909 0.03373413734430604632441586 1.040906165428783891613307
1.683000898326667549298463 0.0176050126972261342106485 1.032463356307080637463969
1.69153463366548728608052 0.03387087535292008372289629 1.040459549626313595638294
1.675337140014100612006587 -0.0004008040109727314514315166 1.024262055974926699519756
1.674867966998820678625748 0.0005375420195867469490280666 1.024330424979233766791253
1.666265862655693874572194 0.01634807622381966030200573 1.032773234100937020940592
1.658132931327847003899478 0.03341554690145904366049834 1.041147674218333207818432
1.658132931327847003899478 -0.0007193944538197193701994925 1.041147674218333207818432
1.73397827949812755043979 0.01537677433707754399982992 1.032043441003743788897395
1.741989139749063664197593 0.03268838716853877945922591 1.040054301254679902655198
1.741989139749063664197593 -0.001934838494383684737512596 1.040054301254679902655198
1.732849493386350303580912 -0.01784915485104800886295706 1.032204547221555523961456
1.741451597729477107634466 -0.03397827949812790016004271 1.040161705399887726031238
1.724193686970619809883942 -0.0338708753529200976006841 1.040322811617699461095299
1.724193686970619809883942 0.0338708753529200976006841 1.040322811617699461095299
1.732849493386350303580912 0.01784915485104799845461621 1.032204547221555523961456
1.741451597729477107634466 0.03397827949812788628225491 1.040161705399887726031238
1.725376175155000746386236 -0.0005375420195867794750932411 1.024086282825411586827613
1.724784931062810056090484 0.0006449461647945621935520966 1.024139984898015498515633
1.71612912464707978443812 0.01559158262749316820050538 1.032258249294159435649476
1.708064562323539981036902 0.03279579131374660977416013 1.040322811617699461095299
1.708064562323539536947692 -0.00161262605876026643425547 1.040322811617699461095299
1.784010190143516361160891 0.01531295304630091343167653 1.031979619712967366496059
1.792005095071758091762604 0.0326564765231504433584675 1.039974524641209319142376
1.792005095071758091762604 -0.002030570430548615194071838 1.039974524641209319142376
1.782704342491232996081862 -0.01798846964164407813413504 1.032027485681049849830515
1.791360148906963489778832 -0.0340101901435162015663316 1.040006435286597641365347
1.774032580752808119228803 -0.033978279498127879343361 1.040054301254679902655198
1.774032580752808119228803 0.0339782794981278724044671 1.040054301254680124699803
1.782704342491232996081862 0.01798846964164406772579419 1.032027485681049849830515
1.791360148906963489778832 0.0340101901435161946274377 1.040006435286597641365347
1.775354383727785645419317 -0.0006449461647945509178495027 1.024000670107419797005832
1.77469348224029688232406 0.0006768568101828532999203469 1.024016625430113958117317
1.766021720501872227515605 0.0153767743370775457345534 1.032043441003744010942
1.758010860250936113757803 0.03268838716853875170365029 1.040054301254679902655198
1.758010860250936113757803 -0.001934838494383656765096546 1.040054301254679902655198
1.833955902848521946069127 0.01542152763629003192624722 1.03208819430295672958664
1.841977951424261128465787 0.03271076381814501388145544 1.040110242878695689938695
1.841977951424261128465787 -0.001867708545564948294237517 1.040110242878695689938695
1.83262933287565354945059 -0.01796609299203786105914027 1.032006763360464818291007
1.841301094614078204259044 -0.03395590284852165186002537 1.040055955583701008393405
1.823984714784726124392478 -0.03401019014351620850522551 1.039974524641209541186981
1.823984714784726124392478 0.03401019014351620850522551 1.039974524641209541186981
1.83262933287565354945059 0.01796609299203785758969332 1.032006763360464818291007
1.841301094614078204259044 0.03395590284852165186002537 1.04005595558370123043801
1.825284141110097291260672 -0.000676856810182884741783349 1.024039002079720317439637
1.824634427947411596804272 0.0006225695151883081472632409 1.024011858432223087689295
1.81598980985648417174616 0.01531295304630091169695305 1.031979619712967588540664
1.807994904928241997055238 0.03265647652315045723625531 1.039974524641209541186981
1.807994904928241997055238 -0.002030570430548630372902252 1.039974524641209541186981
1.883854568177893984426419 0.0156241969775453015678579 1.032290863644211853511479
1.891927284088947169848893 0.03281209848877264523281383 1.040363579555264816889348
1.891927284088947169848893 -0.00156370453368204838547062 1.040363579555264816889348
1.882660096482831280084724 -0.01781047102641564183755918 1.032138861638270288523245
1.891304714573758705142836 -0.03385456817789400663087918 1.040262244884637032882324
1.874066145727217858052427 -0.03395590284852163104334366 1.040110242878695689938695
1.874066145727217858052427 0.03395590284852164492113147 1.040110242878695689938695
1.882660096482831280084724 0.01781047102641565571534699 1.032138861638270288523245
1.891304714573758705142836 0.03385456817789402050866698 1.040262244884637254926929
1.875209950086966559368307 -0.0006225695151882900410869603 1.024167480397844887107794
1.874638047907092097688064 0.00052123484456069067369266 1.024116813062531106126585
1.866044097151478675655767 0.01542152763629004580403503 1.03208819430295628549743
1.858022048575739493259107 0.03271076381814501388145544 1.04011024287869546789409
1.858022048575739493259107 -0.001867708545564926610194068 1.040110242878695689938695
1.933750376844607821169575 0.01583400284693166001903641 1.032499957912190513553696
1.94187518842230355531342 0.03291771302487308398232457 1.040625481091293824675859
1.941875188422303999402629 -0.001249707331009778689401291 1.040625481091293824675859
1.932760886512236986334301 -0.01760494502250209425397998 1.03234384300096193598506
1.941354837267850408366598 -0.03375037684460809039865836 1.040521461846708461962407
1.924219031423266113023374 -0.03385456817789400663087918 1.040364463245372128596955
1.924219031423266557112584 0.03385456817789402050866698 1.040364463245372128596955
1.932760886512236986334301 0.01760494502250212547900254 1.03234384300096193598506
1.941354837267850630411203 0.03375037684460811121534007 1.040521461846708239917803
1.925156426088993955048068 -0.000521234844560657497106182 1.024322339066444431665559
1.924687286911076267159615 0.0004170435112747868013766128 1.024270243399801438854979
1.916145431822105837937897 0.01562419697754530850675181 1.032290863644211631466874
1.908072715911053096604633 0.03281209848877264523281383 1.040363579555264594844743
1.908072715911053096604633 -0.001563704533682045783385406 1.040363579555264594844743
1.977755627040837405061779 0.004858632994169512220317131 1.027103005953331704702691
1.980021788266045579263164 -0.0003263105437527035195162395 1.029695477722292640265778
1.976402104037854989826428 -0.006913057912628401031895908 1.038191966327502324674015
1.970516258584456004143703 -0.0284383575734645718813276 1.044095983163751073519165
1.970516258584456226188308 0.01461224174820777502170621 1.044095983163751073519165
1.977385373403136803460711 -0.005599140269570484704231284 1.027059062859383864463325
1.968888884797927119052474 -0.0219394963924844435543271 1.035139219554725986682797
1.965639454207436909172202 -0.03819196632750283121326973 1.043679651253883733375005
1.968888884797927119052474 0.021939496392484450493221 1.035139219554725986682797
1.965639454207436909172202 0.03819196632750284509105754 1.043679651253883733375005
1.977385373403136803460711 0.005599140269570490775763449 1.027059062859383864463325
1.975119212177928407214722 -0.0004141967316482688559776959 1.024466591090422706855634
1.974748958540227805613654 0.0003263105437527100247292744 1.024422647996474866616268
1.966252469935018121205417 0.01583400284693164961069556 1.032502804691817210880345
1.958126234967509038398248 0.03291486624524658788359943 1.040626904481107395383788
1.958126234967509038398248 -0.001246860551383289529570053 1.040626904481107395383788
1.584681910411100291824482 0.01396951251113273152759664 1.080636179177799416351036
1.592340955205550301343465 0.03198475625556637669255622 1.088295223972249203825413
1.592340955205550301343465 -0.004045731233300903229022083 1.088295223972249203825413
1.588491178136755888061771 -0.003810586235893004269925655 1.092301764372648698042667
1.580792942509404497286596 0.01412627584273799981329223 1.084603528745297529312097
1.588491178136755888061771 0.03206313792136900042706316 1.092301764372648698042667
1.583484322245102493553759 -0.01836411016250973776697819 1.082135745167335461047742
1.591992088787474113331655 -0.0346819104111003029267124 1.08929493463194004831962
1.582174936000236842303934 -0.01828572849670710015468345 1.083445131412201334342171
1.589412507130644414132803 -0.03460352874529767225331156 1.091952897954572510030857
1.582174936000236842303934 0.0182857284967071036241304 1.083445131412201334342171
1.589412507130643970043593 0.03460352874529767225331156 1.091952897954572732075462
1.583484322245102493553759 0.01836411016250973429753124 1.082135745167335461047742
1.59199208878747389128705 0.0346819104111003029267124 1.08929493463194004831962
1.576174143868728894091191 -0.00034886641807610095037534 1.073476989713194829079157
1.575325422120807283832278 0.001348577077766966586525044 1.073976845043040251326261
1.574016035875941632582453 0.001270195411964334612081595 1.075286231287905902576085
1.573555371378997591591542 -0.0003488664180760991072316468 1.076095762202926131578806
1.639088320880562665848856 -0.03468191041110034456007583 1.072977134383349406832053
1.622977134383349673285579 -0.03468191041110035149896973 1.088295223972248981780808
1.622977134383349673285579 0.03468191041110035843786363 1.088295223972248981780808
1.639088320880562665848856 0.03468191041110035843786363 1.072977134383349184787448
1.639881417788876305507983 -0.0024595374166739118748648 1.057659044794449609838694
1.631429276086112878374479 0.01555570632775978012762863 1.065318089588899397313071
1.639881417788876305507983 0.0335709500721934617217812 1.057659044794449609838694
1.615318089588899663766597 0.01396951251113274540538445 1.080636179177799194306431
1.607659044794450098336824 0.03198475625556643220370745 1.088295223972249203825413
1.607659044794450098336824 -0.004045731233300952668641148 1.088295223972249203825413
1.988216182415922794746166 0.006900968501487175950359632 1.07356763516815356673817
1.994108091207961397373083 0.02845048425074351433616826 1.079459543960191947320482
1.994108091207961397373083 -0.01464854724776915896600205 1.079459543960191947320482
1.982318228918313440800603 -0.03821618241592299181075276 1.067675726376115186155857
1.982318228918313884889812 0.03821618241592299874964667 1.067675726376115186155857
1.97642632012627506021829 -0.01666666666666666296592325 1.06178381758407658352894
1.970528366628666150361937 -0.01869687549670539378210421 1.055891908792038202946628
1.970528366628666150361937 0.01463645783662793388446577 1.055891908792038202946628
2.034478763544429025245108 0.01437580624447524352271799 1.081042472911141416602732
2.042239381772214201760107 0.03218790312223764049637253 1.08880309113892703720694
2.042239381772214201760107 -0.003436290633287157787745247 1.08880309113892703720694
2.026581774814996350642105 -0.0226949459603521426498407 1.075436344603900362670856
2.037356532689624799559169 -0.0344787635444290599395778 1.085065672267433001252357
2.017675726376115363791541 -0.03821618241592307507747961 1.079459543960191947320482
2.017675726376115363791541 0.03821618241592307507747961 1.079459543960191947320482
2.026581774814996350642105 0.02269494596035214611928765 1.075436344603900362670856
2.037356532689624799559169 0.0344787635444290668784717 1.085065672267433223296962
2.023704005669801020417253 -0.004882849082589743941462679 1.071413145247608778021231
2.020689866022958192104397 0.001145430211095737910859116 1.069544435811861982088544
2.011783817584076761164624 0.00690096850148717681772137 1.073567635168153344693565
2.005891908792038158537707 0.0284504842507435906640012 1.079459543960191947320482
2.005891908792038158537707 -0.01464854724776923529383499 1.079459543960191947320482
2.083866158368605780992766 0.01560146375564876522479274 1.082267906842552029900162
2.091933079184302712860699 0.03280095545758753006193587 1.090335051238012553653789
2.091933079184302712860699 -0.001598027946290010020691241 1.090335051238012553653789
2.081882062928068322094077 -0.01834492191303444680317014 1.081349237892796022464381
2.090788111366949308944641 -0.03386615836860543127251333 1.089722684876168301570942
2.073282317077098646507238 -0.03447876354442901830621437 1.088803553532669443626446
2.073282317077098646507238 0.03447876354442902524510828 1.088803553532669443626446
2.081882062928068322094077 0.01834492191303446761985185 1.081349237892795800419776
2.090788111366949308944641 0.03386615836860544515030114 1.089722684876167857481732
2.074960109929724794142203 -0.001145430211095675027133112 1.073894459859179750793601
2.074120982306540739159573 0.000532825035272114447965075 1.073588157271268217485272
2.065521236455571063572734 0.01437580624447525046161189 1.081042472911141860691941
2.057760618227785442968525 0.03218790312223759886300911 1.088803091138927259251545
2.057760618227785442968525 -0.003436290633287106613402706 1.088803091138927259251545
2.126881901575945477134155 0.003104747309653825733388732 1.076222845733707744741992
2.128269511270213243392391 -0.0003295279211190220718281918 1.077939983349093910902639
2.122879451476258783060302 -0.01045059166678988411824935 1.086438080642986747648138
2.116101781988036556469979 -0.03022200564311036674602917 1.09321904032149341823299
2.116101781988036556469979 0.00932082230953059157063656 1.093219040321493196188385
2.12645117227586721853072 -0.003966205909810865959386206 1.076121644354748330130178
2.117953074981974381785221 -0.0203033446553585114613405 1.08408714019313223708707
2.112993744488098180056568 -0.03643808064298714732842654 1.092686438865984488444383
2.117953074981974381785221 0.02030334465535852533912831 1.084087140193132015042465
2.112993744488098180056568 0.03643808064298714732842654 1.092686438865984488444383
2.12645117227586766261993 0.003966205909810895449685297 1.076121644354748108085573
2.125063562581599896361695 -0.0005319306790380182083793903 1.074404506739361941924926
2.12463283328152119366905 0.0003295279211190510742363058 1.074303305360402527313113
2.116134735987628801012761 0.01560146375564876522479274 1.082268801198786434270005
2.108067367993814222870697 0.03280006110135346569789405 1.090335498416129533794106
2.108067367993814222870697 -0.0015971335900559467408516 1.09033549841612975583871
1.584810415178372178246491 -0.00822750178595306469464532 1.143037916964325440005723
1.577848332142697929114661 0.01118166547603129459820259 1.136075833928650968829288
1.584810415178372178246491 0.03059083273801565042160355 1.143037916964325662050328
1.588491178136755666017166 -0.03460352874529766531441766 1.123094706882053372964947
1.580056789917727799732461 -0.0206793626739486743892904 1.132799290513045509243284
1.586282720361725573354761 -0.03607583392865101878932421 1.141767721552360947967486
1.580056789917727799732461 0.02067936267394870214486602 1.132799290513045509243284
1.586282720361725573354761 0.03607583392865103266711202 1.141767721552361170012091
1.588491178136755666017166 0.03460352874529767225331156 1.123094706882053372964947
1.588491178136755888061771 -0.003810586235892997331031751 1.107698235627351035503807
1.580792942509404719331201 0.01412627584273801369108003 1.115396471254702204234377
1.588491178136755888061771 0.03206313792136900736595706 1.107698235627351035503807
1.572358554290376631001891 0.002742500595317710204712469 1.125101054885694340512714
1.571622401698699933447756 -0.001270195411964315313282925 1.127107402889335308060481
2.13644246720863195676543 0.01044839891606892667841322 1.127115065582735553562088
2.143221233604315933973794 0.03022419945803446472698539 1.133893831978419530770452
2.143221233604315933973794 -0.009327401625896597492371143 1.133893831978419530770452
2.129662604437587702932433 -0.03644246720863220101449542 1.120336299187051576353724
2.129662604437587702932433 0.03644246720863220101449542 1.120336299187051576353724
2.122883838041904169813279 -0.01666666666666667684371106 1.11355753279136759914536
2.116103975270859471891072 -0.02400812445815769802237583 1.106778766395683621936996
2.116103975270859471891072 0.009325208875175641787258485 1.106778766395683621936996
2.184075003304992712571675 0.01518332672334721245022138 1.13184999339001368667823
2.192037501652496445103679 0.03259166336167361455178337 1.139812491737517419210235
2.192037501652496445103679 -0.002225009914979190085021488 1.13981249173751719716563
2.179040467506214717730018 -0.02051747051362521126471883 1.128298797534555086841124
2.188928367777197792065635 -0.03407500330499306506748525 1.137445027833877908562954
2.17033629918705184280725 -0.03644246720863214550334419 1.133893831978419530770452
2.17033629918705184280725 0.03644246720863213856445029 1.133893831978419530770452
2.179040467506214717730018 0.02051747051362520085637797 1.128298797534555086841124
2.188928367777197792065635 0.03407500330499306506748525 1.137445027833878130607559
2.174187103034010082325267 -0.00310913387529881003051857 1.122703763090690642911795
2.172261701110531184610863 0.0007416699716597249325902852 1.121520031138871331677365
2.163557532791367865598886 0.01044839891606892667841322 1.127115065582735553562088
2.156778766395683888390522 0.03022419945803440921583416 1.133893831978419530770452
2.156778766395683888390522 -0.009327401625896541981219912 1.133893831978419530770452
2.226880108918089185010558 0.003057943254930480404124582 1.126177834336841376838834
2.228233511900242547199014 -0.0003511372906238099120615481 1.127882374609618487681928
2.222782553176527731153556 -0.01055078015680550873600652 1.136391276588263776758936
2.215978191470659552919642 -0.03027539007840264820292653 1.143195638294131954992849
2.215978191470659552919642 0.009173829764791623792019593 1.143195638294131954992849
2.22633370528694740642095 -0.00415075051721400679199947 1.125982567996323346903864
2.217824803308301895299337 -0.02046627989325685778587705 1.133749800003308827456294
2.212920248215729301932697 -0.03639127658826379896339631 1.142453968322472146468272
2.217824803308301895299337 0.02046627989325687860255876 1.133749800003309049500899
2.212920248215728857843487 0.03639127658826381284118412 1.142453968322472146468272
2.22633370528694740642095 0.004150750517214033680213348 1.125982567996323346903864
2.224980302304794044232494 -0.0007416699716597168010739916 1.12427802772354623606077
2.224433898673652265642886 0.0003511372906238365834349913 1.1240827613830282061258
2.215924996695006754521273 0.01518332672334721938911528 1.131849993390013908722835
2.207962498347503466078479 0.03259166336167361455178337 1.139812491737517419210235
2.207962498347503466078479 -0.002225009914979186181893667 1.13981249173751719716563
1.589764874485193768549607 -0.002290239014650644316234418 1.192055113499844498647917
1.581799766992830758027822 0.01515332131837133014529151 1.184110226999689041704755
1.589764874485193768549607 0.03259688165139331544883916 1.192055113499844498647917
1.58487316892807106327723 -0.03607583392865107430047544 1.170949002856722209742202
1.578893889356878021956732 -0.02018606092833973367217659 1.179670783023233582298417
1.587841800313722462334454 -0.03411022699968864480002395 1.189375366654225718576754
1.578893889356878021956732 0.02018606092833971285549488 1.179670783023233360253812
1.587841800313722462334454 0.03411022699968864480002395 1.189375366654225496532149
1.58487316892807106327723 0.03607583392865106736158154 1.170949002856722209742202
1.584810415178372178246491 -0.008227501785953127144690455 1.156962083035674382358593
1.577848332142697929114661 0.01118166547603127378152088 1.163924166071349075579633
1.584810415178372178246491 0.03059083273801568164662612 1.156962083035674604403198
1.571869052571504887794163 0.0007768936663553006535809509 1.172645946237860226091243
1.572851856035986095605494 -0.00274250059531775747592719 1.174405643368696905426418
2.236391276588263199442963 0.01055078015680548271515438 1.177217446823472402073207
2.243195638294131377676877 0.03027539007840273493910033 1.184021808529340358262516
2.243195638294131377676877 -0.009173829764791741753215959 1.184021808529340358262516
2.229586914882395465298259 -0.03639127658826392386348658 1.170413085117604445883899
2.229586914882395465298259 0.03639127658826389610791097 1.170413085117604223839294
2.222782553176527287064346 -0.01666666666666669766039277 1.16360872341173604560538
2.215978191470659552919642 -0.02415950356854161887310006 1.156804361705868089416072
2.215978191470659552919642 0.009173829764791717467087295 1.156804361705868089416072
2.283961787839187795867701 0.01620534974464959282469678 1.182474220366470429866013
2.291980893919594031160614 0.03350047091717066327642982 1.19089112249172268676034
2.291980893919594031160614 -0.001089771427871459846120628 1.19089112249172268676034
2.280877220374471825437013 -0.02035306442745165797503226 1.180248765868617377705618
2.290739525335270698747081 -0.03396178783918774035655019 1.18988041236840746961434
2.272229659788211009185943 -0.03639127658826391692459268 1.185838383199947276835928
2.272229659788211009185943 0.03639127658826389610791097 1.185838383199947276835928
2.280877220374471825437013 0.02035306442745161981111579 1.180248765868617377705618
2.290739525335270698747081 0.03396178783918771953986848 1.18988041236840746961434
2.274099482878388922557633 -0.00305794325493061050838528 1.172842573866680560001896
2.272256283997996284540477 0.0006284545058543623829994118 1.171627829492142502942897
2.263608723411735912378617 0.01055078015680548965404828 1.177217446823472402073207
2.256804361705867734144704 0.03027539007840274187799423 1.184021808529340358262516
2.256804361705867734144704 -0.009173829764791738283769007 1.184021808529340358262516
2.302347942446808737315678 -0.04610212202623358013209298 1.198450064473041587476132
2.303498874513842498146232 -0.01586865974681723676087408 1.19690012894608299731658
2.302347942446808737315678 0.01436480253259926793962808 1.198450064473041587476132
2.301948938986884130031285 -0.0469001289460831763400428 1.19821940601203302811939
2.301948938986884130031285 0.0469001289460830098065891 1.19821940601203302811939
2.301549935526959078657683 0.04643881202406595354315044 1.197988747551024468762648
2.30309987105391744677263 0.0162053497446494540468187 1.196669470485074660004443
2.301549935526959078657683 -0.0140281125347668893244002 1.197988747551024690807253
1.592200354381300808626065 0.003384495434592592333356009 1.211184141053291973832984
1.584400708762601528434288 -0.01666666666666667337426411 1.218892602098597066628827
1.592200354381300808626065 -0.0299488378987407405373844 1.211184141053291973832984
1.575934814157895047515012 -0.0002651225427461399828006627 1.226199936700641091036346
1.575268565171887846787513 0.001067375429267981151726374 1.225798810257380022648022
1.582762498513629267904435 -0.01842974181631578528550719 1.216852504521110045487831
1.59144368170715311272545 -0.03440070876260133136970154 1.210025581050629739365831
1.575053276583070260841168 -0.002028197692395252924035809 1.225318399125816526407107
1.575053276583070260841168 0.002028197692395224734779324 1.225318399125816526407107
1.582762498513629267904435 0.01842974181631576793827243 1.216852504521110045487831
1.591443681707153334770055 0.03440070876260132443080764 1.210025581050629739365831
1.589805471458181074240201 -0.002209045068676444498190214 1.207985483473142718224835
1.581880960938804925319801 0.01515332131837133361473846 1.215970966946285480858592
1.589805471458181074240201 0.03251568770541912040128452 1.207985483473142718224835
1.574171739008245918256534 0.0002651225427461117393340695 1.224436861550991739733263
1.574387027597063282158274 -0.0006956997203811317352986632 1.224917272682555458018783
1.638890140853621613103996 -0.003370885026265433952186168 1.242261025879886737754987
1.631053531606981188417649 0.01448450006684115845545513 1.234522051759773475509974
1.638890140853621613103996 0.03233988515994776213879902 1.242261025879886737754987
1.623314557486867482083426 -0.03452205175977327011871409 1.226752919215882364767367
1.623314557486867482083426 0.03452205175977325624092629 1.226752919215882364767367
1.607738974120113795152065 0.003505838431764524577155528 1.211244812551877991779747
1.615477948240227057397078 -0.01434954666134207780514576 1.219013945095769102522354
1.607738974120113795152065 -0.03220493175444866240653141 1.211244812551877991779747
2.334401592436363692684154 0.01454644032380833507112072 1.23120496105887333726514
2.342200796218182112795603 0.0322813660935061530476986 1.239012310772292790872484
2.342200796218182112795603 -0.003188485445889482905457157 1.239012310772293012917089
2.325933133011440112625223 -0.03440159243636449482028894 1.223405757277055361242901
2.325933133011440112625223 0.03440159243636448094250113 1.223405757277055361242901
2.318133929229622580692194 -0.01666666666666667684371106 1.215598407563635685590953
2.309665469804699000633263 -0.03146706731045259552992377 1.207799203781817931613318
2.309665469804699000633263 0.001866266022880741894465761 1.207799203781817931613318
2.375886727754040972371286 0.001171182237085933997011722 1.225284454483044127570679
2.376321750554835077196003 -0.0003011366354984508714523472 1.226020613919336366137713
2.369036479736047695610068 -0.01426940500207669361432128 1.23450451557041884775856
2.361316186116466653288626 -0.03210725390582930272032058 1.242252257785209312856978
2.361316186116466209199416 0.003568443901675928068423227 1.242252257785209312856978
2.375218347312253008851712 -0.002507943120662145964488987 1.224917210676754297793423
2.366734445661170305186261 -0.01887347315183037291252965 1.23234099915640804567829
2.360117555284171331209109 -0.03450451557041928074553994 1.241192144613780357076394
2.366734445661170305186261 0.01887347315183035209584794 1.23234099915640804567829
2.360117555284171331209109 0.03450451557041928074553994 1.241192144613780357076394
2.375218347312252564762503 0.00250794312066211864259424 1.224917210676754297793423
2.374783324511458904026995 -0.001035624248077760770764266 1.224181051240462281270993
2.374114944069670940507422 0.0003011366354984235495576006 1.223813807434172673538342
2.36563104241858868093118 0.01454644032380833160167377 1.231237595913826199378605
2.357815521209293940785301 0.03224873123855274970050999 1.239028628199769332951519
2.357815521209293940785301 -0.003155850590936079558268545 1.239028628199769332951519
1.641966732047039245756537 0.002264069312946870304870117 1.260297337265908090842004
1.633933464094077914197101 -0.0166666666666666594964763 1.268098766703512403353216
1.641966732047039245756537 -0.03106926402038646950476419 1.260297337265908090842004
1.625502810983537438360713 -0.0001946395544141611233610739 1.275697450537951471716269
1.625105425825958294083762 0.000600130760744464861362879 1.275494704934786449612716
1.632146993035527460236267 -0.01805744218394199004928957 1.266571409668773462442459
1.64087564874712654727773 -0.03393346409407778374589526 1.25946536798980668336867
1.624807423224899682878686 -0.001585415071689492841691682 1.275002062779313938278847
1.624807423224899682878686 0.001585415071689524934075988 1.275002062779313938278847
1.632146993035527682280872 0.01805744218394201086597128 1.266571409668773462442459
1.64087564874712654727773 0.03393346409407779068478916 1.25946536798980668336867
1.639089177688576093316897 -0.002972811356356377249232636 1.257938010955067964502518
1.631451605276890148843449 0.01448450006684118274158379 1.265876021910135706960432
1.639089177688576093316897 0.03194181149003873232405937 1.257938010955067964502518
1.624112035466262371485868 0.0001946395544141930802201079 1.274306675020676182796819
1.624410038067320538601734 -0.0007906447565308668840727835 1.274799317176148694130688
1.69766784193333575281315 0.03600705160001468896346921 1.288339209666678808474671
1.695335683866671772079826 -0.01666666666666676357988486 1.290671367733343233297205
1.69766784193333575281315 0.002673718266681349153834901 1.288339209666678808474671
1.686548466007718127812609 -0.0009077690512408151954706903 1.287456235058958675665508
1.680093406215428686323321 0.01200235053333822965448974 1.281908944317909693211277
1.692688364524340460803842 -0.0453356838666716666086387 1.288024048391011922021221
1.672213957407715501091161 -0.02957678625124571247795302 1.273953695735057234372789
1.67602169785767385334907 -0.0453356838666716666086387 1.276853667133774905551036