# geometry NO_DATA 660
#  x  y  z
1.648675307543659096509714 0.04167022119112874511959177 0.9929949136474700566168394
1.64735061508731783774806 -0.01666666666666666296592325 0.9945104181392230291436363
1.648675307543659096509714 0.008336887857795408779404411 0.9929949136474700566168394
1.6401227951916670377841 0.002211026875364933367423825 0.997350615087317482476692
1.634219667752357274537189 -0.02847292154528591884288247 0.998675307543658741238346
1.634219667752357274537189 0.03289497529601578817981533 0.998675307543658741238346
1.646216373726709925051637 -0.0473506150873175130078252 0.993376176778615116447213
1.638988553831058903043072 -0.04735061508731752688561301 0.9962163737267095697802688
1.638988553831058903043072 0.04735061508731752688561301 0.9962163737267095697802688
1.646216373726709925051637 0.04735061508731752688561301 0.993376176778615116447213
1.695873760666754437309578 0.02908440671099019048106982 0.9832106460442356921092255
1.691747521333509141072682 -0.0166666666666666664353702 0.9854159640222495131212099
1.695873760666754437309578 -0.004248926622343152798011445 0.9832106460442356921092255
1.677605382868871064516725 -0.01161761026260948494182035 0.9892229931314802104935779
1.667589483737478506242269 0.008414188000175569157046418 0.990824704262697197876264
1.690594768859532637250709 -0.0417475213335089037625103 0.9842632115482731203215394
1.665064955535449531254244 -0.03669846492945172400368392 0.9905090355166313864643257
1.673928102192866029795937 -0.0417475213335089037625103 0.9877545719114382283265741
1.676452630394894782739357 0.03669846492945173094257783 0.9880702406575041507608148
1.663912203061473693566086 0.04495094359594282995562509 0.9893562830426552157092601
1.690594768859532637250709 0.0417475213335089107014042 0.9842632115482732313438419
1.652524528202028886170183 0.03927054969975404818960385 0.9917950779017825624350735
1.655049056404057417068998 0.01098627277047788813879592 0.9921107466478483738470118
1.652524528202028664125578 -0.01729800415879826497311811 0.9917950779017825624350735
1.743012852505161358607211 0.01992033847116382247466326 0.9769074859660020759832832
1.736025705010322939259026 -0.01666666666666664908813544 0.9779730217407431869247603
1.743012852505161358607211 -0.01341299486216951039607714 0.9769074859660020759832832
1.726052269194429111820455 -0.00328020496512101836575348 0.9793324741595501592428263
1.723065980873373925774672 0.002692371676989755314296504 0.9796263908036157985748105
1.735713912900853195253603 -0.03602570501032305305688652 0.9776612296312735539416394
1.716372750022601145758472 -0.02263924330877742363554717 0.9799880643431292392975251
1.719047246234186587798831 -0.03602570501032305305688652 0.9793823555895937449378152
1.725740477084959367815031 0.02263924330877745833001669 0.9790206820500803042151006
1.716060957913131179708444 0.03661353829845439417089992 0.9796762722336593842697994
1.735713912900853195253603 0.03602570501032307387356823 0.9776612296312735539416394
1.706693230850772957651884 0.02395042367593566701167163 0.980643654526708319352224
1.713386461701545515623479 0.0040035520441479618275471 0.9802819809871948786295093
1.706693230850772957651884 -0.01594331958763976070381219 0.980643654526708319352224
1.784160955598501629992825 -0.0002509182484635752202924153 0.9740469186106001098224283
1.79208047779925072617857 0.01724337068337122164107811 0.9743352706189523093627258
1.79208047779925072617857 -0.0177452071802983932236053 0.9743352706189523093627258
1.775094333706658034088832 -0.01828474320479592241106559 0.9742667114414900186858404
1.783822894176472217964147 -0.03416095559850146345937105 0.9745364794537387798101236
1.766347189240740522819806 -0.0341237876062944617272521 0.974961172637827666598298
1.766347189240740522819806 0.03412378760629448948282771 0.974961172637827666598298
1.775094333706658256133437 0.01828474320479596751387596 0.9742667114414900186858404
1.783822894176472217964147 0.03416095559850149121494667 0.9745364794537387798101236
1.775432395128687668162115 -0.0007904542729611097745534565 0.9737771505983513486981451
1.774623356859623024561756 0.0008276222651681685357066831 0.9737957345944547871141594
1.765876212393705291248125 0.0005613001275074380215512893 0.9744901957907925460489196
1.757938106196852645624062 0.01801842106713523808392274 0.9751660729910268665676654
1.757938106196852645624062 -0.01689582081212037678596971 0.9751660729910267555453629
1.833468493279718725119665 0.001180514796672174539921008 0.9754550974519508033111492
1.841734246639859406968753 0.01798234140972423955595616 0.9761129348234793834393486
1.841734246639859406968753 -0.01562131181637990348654021 0.9761129348234793834393486
1.825236985877255246890627 -0.01694866850152586951194777 0.9751018259308701363607952
1.833643740154825785282355 -0.03346849327971872928300101 0.9757655042734429962081322
1.816836072570729543329549 -0.03348017522180714300450433 0.9750439467798309722823547
1.816836072570729543329549 0.03348017522180717076007994 0.9750439467798309722823547
1.825236985877255690979837 0.01694866850152591461475815 0.9751018259308701363607952
1.83364374015482600732696 0.03346849327971875009968272 0.9757655042734431072304346
1.825061739002148408772541 -0.0001468418884737883413002524 0.9747914191093778324415098
1.824920738084718774274506 0.00013515994638543441354675 0.9747855781383336637446746
1.816519824778192848668823 -0.0002509182484635752745025239 0.9747276989872944996662341
1.808259912389096557561174 0.01656259030667690465565833 0.9746756608072996153069312
1.808259912389096557561174 -0.01706442680360407276873858 0.9746756608072996153069312
1.894069265766408216578043 0.02612209830134345350804992 0.9820528325349352494200161
1.888138531532816744018533 -0.0166666666666666525575824 0.9821303149170799162703815
1.894069265766408216578043 -0.007211235031989883699499178 0.9820528325349352494200161
1.877812164321480015161114 -0.003986067756006806024615674 0.9817982320774867321944157
1.873416531343735202952416 0.004805198199483272022969338 0.9813886668557484371788746
1.887362981572821007958396 -0.03813853153281658581175151 0.9813547649570845132771524
1.867076231888405324355062 -0.02545793262215673841142305 0.9799858903760810813210469
1.870696314906154400503624 -0.03813853153281658581175151 0.979619905637823529254149
1.877036614361484057056373 0.02545793262215676269755171 0.9810226821174909961342792
1.866300681928409588294926 0.03731940108934016231412301 0.9792103404160853452609103
1.887362981572820785913791 0.03813853153281660662843322 0.9813547649570844022548499
1.856340299455330189459801 0.02183324921934565177039644 0.9781735486746754304476781
1.862680598910660068057155 0.001180514796672157626367117 0.9795763251543427863055058
1.856340299455330189459801 -0.01947221962600133304821526 0.9781735486746754304476781
1.947270019575515931364862 0.0378490420357961154795845 0.9905790224602799565190026
1.944540039151031907138645 -0.01666666666666666990481716 0.9911945405934138308978731
1.947270019575515931364862 0.00451570870246278434356757 0.9905790224602799565190026
1.931762277800267435523551 -0.008888856034862073832170104 0.9906511338351294826409799
1.921714496873986988134675 0.01120670581769856247178474 0.989492208943711260005216
1.943288512251921007489841 -0.04454003915103188493418429 0.9899430136943029312490694
1.917825591558084852294996 -0.03676222851922729406570767 0.9873728976438771454127163
1.926621845585254177990464 -0.04454003915103188493418429 0.9872802956361842463550715
1.930510750901156313830143 0.03676222851922729406570767 0.9893996069360184719698736
1.916574064658973952646193 0.04222218936819541884597484 0.9861213707447660237193077
1.943288512251920785445236 0.04454003915103187105639648 0.9899430136943028202267669
1.903888905315901824977232 0.03020575613672227266448544 0.9840946614526245861398479
1.907777810631804182861515 0.004650233435193531529583399 0.9862139727524589227769525
1.903888905315902047021837 -0.02090528926633522521782993 0.9840946614526245861398479
1.982782951297331175410932 -0.01552009596144576439313845 0.9983030472587766102066098
1.968936904760500539168788 0.01441933188944104389517253 0.9966060945175533314355221
1.982782951297331175410932 0.04435875974032785218348351 0.9983030472587766102066098
1.967239952019277149375398 -0.04660609451755347298895771 0.9949575487011587116015221
1.967239952019277149375398 0.04660609451755347298895771 0.9949575487011587116015221
1.951696952741222901295259 0.03991509740231770353435792 0.9916120501435408129964344
1.953393905482446513133254 0.009975669551430903919664317 0.9932605959599354328304344
1.951696952741222901295259 -0.01996375829945590263392319 0.9916120501435408129964344
1.549637495991591507049634 0.04735819289986130387060115 1.047720696908269744085374
1.549274991983183191734952 -0.01666666666666666296592325 1.048316592441522310252822
1.549637495991591507049634 0.01402485956652797099986074 1.047720696908269744085374
1.548304952069116779966862 0.01472658683853397473817459 1.049274991983183191734952
1.547697416163458905558059 -0.0178817384779824742335741 1.049637495991591507049634
1.547697416163458683513454 0.04733491215505043064881718 1.049637495991591507049634
1.548923467564065958868014 -0.04927499198318311540711889 1.047965068022404633296674
1.547953427649999103010714 -0.04927499198318311540711889 1.048923467564065514778804
1.547953427649999547099924 0.04927499198318312234601279 1.048923467564065958868014
1.548923467564065514778804 0.04927499198318312234601279 1.047965068022404633296674
1.58690564742563666733588 -0.009132895645442937193614341 1.016861238084975305184798
1.593452823712818489099163 0.01110608511352702970631512 1.014080947308405367124351
1.593452823712818267054558 -0.0293718764044129040935438 1.014080947308405145079746
1.576023663443192335265053 -0.02150467323954335235880464 1.022451349350889326927927
1.584989843016812560705375 -0.03690564742563662986585271 1.018517747768454384527104
1.565904173063707549573564 -0.03459902581390672526850949 1.031612440188713231137285
1.565904173063707327528959 0.03459902581390672526850949 1.031612440188713231137285
1.576023663443192335265053 0.02150467323954335929769854 1.022451349350889104883322
1.584989843016812560705375 0.03690564742563662986585271 1.018517747768454384527104
1.577939467852016441895557 -0.00126569248057339174724778 1.020794839667409803496412
1.575520464565578038218518 0.003572314092303297862474043 1.021948150473274807836788
1.56540097418609325252703 0.01474986758334485142940551 1.031109241311098934090751
1.557700487093046426423371 0.03268222673058491373199175 1.039117021343058056004338
1.557700487093046426423371 -0.003182491563895205669010302 1.039117021343058056004338
1.614036925232036567834371 -0.04687157519502817282219809 1.004598078461020449481111
1.604598078461020538298953 -0.04687157519502817282219809 1.008364963971632111139343
1.604598078461020538298953 0.04687157519502817282219809 1.008364963971632111139343
1.614036925232036345789766 0.04687157519502817282219809 1.004598078461020227436507
1.620441905944517646531722 -0.02799388165299657171836145 1.001564212402485942732255
1.61256727157598800381777 0.00221102687536493119901948 1.003128424804971885464511
1.620441905944517646531722 0.03241593540372643411640041 1.001564212402485942732255
1.603128424804971974282353 -0.009132895645442937193614341 1.006895310315583547122742
1.601564212402486031550097 0.02107201288291856572376659 1.009097983423709488093323
1.601564212402486031550097 -0.03933780417380444704988918 1.009097983423709488093323
1.999761575030168714306456 -0.01615548528549507617535497 1.000494015660417845836605
1.999880787515084579197833 0.01693942307800627711245056 1.000630393866087652909869
1.999880787515084579197833 -0.0492503936489964294631605 1.000630393866087652909869
1.998757120126471775733989 -0.04976157503016802319262268 1.000374803175501536856018
1.998757120126471775733989 0.04976157503016802319262268 1.000374803175501536856018
1.998637907641555688798007 -0.01666666666666666990481716 1.000238424969831729782754
1.997633452737858750225541 0.01418090691960905737334375 1.000119212484915864891377
1.997633452737858750225541 0.04751424025294240238714849 1.000119212484915864891377
2.045235975001077122215065 -0.006966284222171459719619158 1.009614216221170091003501
2.047617987500538028200481 0.02160302411223931698391887 1.01208239494395635382773
2.047617987500538472289691 -0.03553559255658223642315718 1.01208239494395635382773
2.01478199760866916179225 -0.04490984796606960205433978 1.002879355940924810397519
2.031285600757831488749616 -0.04523597500107745528197256 1.007566483645668364843573
2.000497343441463904412103 -0.04967387296499216342571259 1.000752934132049354332139
2.000497343441463904412103 0.04967387296499215648681869 1.000752934132049354332139
2.01478199760866871770304 0.04490984796606960205433978 1.002879355940924810397519
2.031285600757831488749616 0.04523597500107745528197256 1.007566483645668586888178
2.028732371851914351168489 -0.01634053963165882708552523 1.004927088516426536557447
2.014610781202213374285748 0.01190264166774411026816782 1.002708139534469022891017
2.000326127035008116905601 -0.01615548528549507964480192 1.000581717725593566825637
2.000163063517503836408196 0.01685172101283041387609352 1.000674244898675624426687
2.000163063517503836408196 -0.0491626915838205696962504 1.000674244898675624426687
2.085804032764751347883703 0.004186432806503560463684543 1.024622516971833041665718
2.092902016382375496306167 0.02332379890458866414371109 1.027951083090794082153252
2.092902016382375496306167 -0.01495093329158153801217157 1.027951083090794082153252
2.072922055974682820078669 -0.02367522533934266620869735 1.020451356543265131193721
2.083524318928644980530862 -0.03580403276475176144177937 1.024813502567145651056535
2.063353372925640805135572 -0.03787119257459088672579384 1.018203564147888595670111
2.063353372925640805135572 0.03787119257459088672579384 1.018203564147888595670111
2.072922055974683264167879 0.02367522533934264886146259 1.020451356543265131193721
2.083524318928645868709282 0.03580403276475176144177937 1.024813502567145651056535
2.07520176981078918743151 -0.004537859241257573804373404 1.020260370947952299758299
2.071697490474450731312572 0.002470699431418420764783317 1.019226791043032820383019
2.062128807425408716369475 -0.006966284222171468393236538 1.016978998647656506904013
2.056064403712704269366895 0.01423824168575276230552795 1.015764786157199672800289
2.056064403712704269366895 -0.02817081013009568868366017 1.015764786157199672800289
2.135646160412216332247226 -0.01118832844746415512704463 1.04683448885968077846087
2.122571346916586776387703 0.0158139826052310708548454 1.043668977719361734557424
2.135646160412216332247226 0.04281629365792630897979976 1.04683448885968077846087
2.119405835776267732484257 -0.04366897771936190109087761 1.040594371929599137871492
2.119405835776267288395047 0.04366897771936190109087761 1.040594371929599137871492
2.103165511140318688632078 0.03118874385919880032336238 1.034354254999517719326718
2.106331022280637732535524 0.004186432806503566535216709 1.037428860789280093968046
2.103165511140318688632078 -0.02281587824619166551820548 1.034354254999517941371323
1.514829591513517259571131 -0.02908837739276599193560813 1.09391796890628301142101
1.516537842397334134858511 -0.007919106246866470383283243 1.087835937812566156068783
1.514829591513517259571131 0.01325016489903305984265902 1.09391796890628301142101
1.531275462817931920511683 -0.03531347856402697327204976 1.065578836065331547189317
1.521660867159048580177227 -0.02314941637659316889252814 1.076163471638281521336467
1.518691386650962371618334 -0.03783593781256619492658899 1.085486877586961496078288
1.521660867159048802221832 0.02314941637659314460639948 1.076163471638281521336467
1.518691386650962371618334 0.03783593781256618798769509 1.085486877586961274033683
1.531275462817931920511683 0.03531347856402695939426195 1.065578836065331547189317
1.538736514223187246130919 -0.003920225058826326026972797 1.057343260717986455077266
1.530383148188573461112583 0.01472658683853396606455721 1.064686521435973087790217
1.538736514223187246130919 0.03337339873589426769706634 1.057343260717986455077266
1.520768552529690120778127 0.004502604479232842973890349 1.075271157008922839892762
1.519507322905420565462009 -0.00198014523069364560547978 1.078512531863886181326961
2.149837774344976359941484 -0.01630369019852000167514205 1.050343713889096530778033
2.149918887172487913517216 0.01686741747978976607713619 1.050444089295658134375344
2.149918887172487913517216 -0.04947479787682977636631421 1.050444089295658134375344
2.149492545141770349914623 -0.0498377743449764376570954 1.050262601061584755157696
2.149492545141770349914623 0.04983777434497645153488321 1.050262601061584977202301
2.149411432314258352249681 -0.0166666666666666525575824 1.05016222565502337360499
2.14906620311105189813361 0.01565175695020751961417105 1.050081112827511597984653
2.14906620311105189813361 0.04898509028354085248491145 1.050081112827511597984653
2.192662512910149352762801 -0.001688935923590501736457625 1.064826352461388347947491
2.196331256455074765199242 0.02430691031989234279775403 1.068646474288001080310551
2.196331256455074765199242 -0.02768478216707334627066928 1.068646474288001080310551
2.163431215689216813302664 -0.04238056969793634054521902 1.054102036112400497813724
2.179956910749776710645165 -0.04266251291014951096958185 1.061449929877831932500953
2.150433292567475618284334 -0.04971805678778682541230083 1.050614780801548686639535
2.150433292567475618284334 0.04971805678778685316787644 1.050614780801548686639535
2.163431215689216813302664 0.04238056969793635442300683 1.054102036112400497813724
2.179956910749776710645165 0.04266251291014951096958185 1.061449929877832154545558
2.176136817849589011331091 -0.01638472345445349948045433 1.057478458695956913260261
2.163279866333954082335822 0.009329179576816188507182304 1.053950686757138210936091
2.150281943212212887317492 -0.01630369019852000167514205 1.050463431446286177717298
2.15014097160610662129443 0.01674769992260016771012943 1.050503948074252846822674
2.15014097160610617720522 -0.04935508031964017799930744 1.050503948074252846822674
2.24899310936355600887282 0.04608932315121756773113049 1.09709621378766097876678
2.247986218727112461834849 -0.01666666666666667684371106 1.097037770939164769146146
2.24899310936355600887282 0.01275598981788422965621965 1.09709621378766097876678
2.236309258603727201375477 -0.0066872535801032906982444 1.092996512183830315478872
2.225639189116785932043285 0.01465288539377890622561473 1.089013696276992515521442
2.247302819026181452954916 -0.0479862187271122564435899 1.096354371238234204355422
2.220649482573504585047885 -0.03800680564054886856339976 1.084825601525145621906177
2.230636152359514845500144 -0.04798621872711224256580209 1.088125017731052857072882
2.235625858902796636584753 0.03800680564054886856339976 1.092313112482899750688148
2.219966082872574020257161 0.04002058691343662183426133 1.084142201824215057115453
2.247302819026181452954916 0.04798621872711224256580209 1.096354371238233982310817
2.204989706543281524631084 0.0216649843231794536624335 1.076654690866460928333481
2.209979413086563315715694 -0.001688935923590502820659798 1.080842785618307821948747
2.204989706543281968720294 -0.0250428561703604536659018 1.076654690866460928333481
2.253389507938782010398882 -0.04620535406807105976989547 1.099594862006853412950136
2.252302460959110685934093 -0.01368229672103047495079764 1.09918972401370718117164
2.253389507938782898577301 0.01884076062601010986830019 1.099594862006853412950136
2.251897322965964676200201 -0.04918972401370724778502108 1.098646414218905853488195
2.251897322965964676200201 0.04918972401370725472391499 1.0986464142189060755328
2.250405137993146453823101 0.04729282843781257295034948 1.097697966430958516070859
2.250810275986292907646202 0.01476977109077198813125165 1.098241276225759621709699
2.250405137993146453823101 -0.01775328625626859668784618 1.097697966430958516070859
1.505090609102667231766759 -0.04387023437414026144631762 1.148960843476807713869903
1.504104039336122022874065 -0.0126152140871916354503135 1.147921686953615516557647
1.505090609102667231766759 0.01863980619975698707624368 1.148960843476807713869903
1.510167774918338645662175 -0.04607936877529742597525697 1.105793994708438532370565
1.506833151231630640864978 -0.04400105572891271910052069 1.121421504851912942513081
1.506898561909016942550466 -0.04792168695361529590082128 1.136127855906228223403787
1.506833151231630640864978 0.04400105572891271910052069 1.121421504851912720468476
1.50689856190901716459507 0.04792168695361529590082128 1.136127855906228223403787
1.51016777491833842361757 0.04607936877529742597525697 1.10579399470843831032596
1.510707876032151286693761 -0.0373318083554972160453822 1.101960315612351415381909
1.508294411434602633192981 -0.007919106246866456505495435 1.103920631224702519901371
1.510707876032151730782971 0.02149359586176430303439133 1.101960315612351193337304
1.504959787747894850440389 0.01458835362028196476480435 1.119548141368176707999282
1.504038628658735721188577 -0.01274603544196408616562266 1.133215335899299791577732
2.292039921620358633447267 0.0007785561873814410022848209 1.116682689806665518261752
2.296019960810179227905792 0.02615181114107317794648111 1.12142526204386872024088
2.296019960810179227905792 -0.02459469876631030504920972 1.12142526204386872024088
2.28084547911633084282812 -0.04203992162035841140266257 1.112702650616844701758623
2.28084547911633084282812 0.04203992162035841140266257 1.112702650616844701758623
2.276865439926510248369596 -0.0166666666666666594964763 1.107960078379641277734891
2.265670997422482457750448 -0.02164237510067206285424568 1.103980039189820461231761
2.265670997422482457750448 0.01169095823266127348594168 1.103980039189820461231761
2.326230182646143340718936 -0.02022460951014153074378754 1.146454792156285540372096
2.318432903088643470823627 0.006018308135762824584436004 1.142909584312571169562034
2.326230182646143340718936 0.03226122578166716603487174 1.146454792156285318327491
2.31488769524492887796896 -0.0429095843125710252330407 1.138510736916642729354976
2.31488769524492887796896 0.0429095843125710252330407 1.138510736916642729354976
2.303545207843714415218983 0.02702147383328579177685924 1.130566681677000140382461
2.30709041568742856398444 0.0007785561873814387254602587 1.134965529072928358544914
2.303545207843714415218983 -0.02546436145852291887958785 1.130566681677000140382461
1.51757013660246653508068 -0.02915131454058064730539002 1.196721451143047287857257
1.51370289158666260220798 -0.002375078921152917917070102 1.193442902286094398078831
1.51757013660246653508068 0.02440115669827481320597329 1.196721451143047287857257
1.506245893221252574178948 -0.0474102707112005888889783 1.154220166931515523245366
1.507498715788468057752425 -0.0408531729972949897433665 1.167608284741229240921712
1.513349645016825117949111 -0.04344290228609438975215795 1.182980086763496085922043
1.50749871578846783570782 0.0408531729972949897433665 1.167608284741229240921712
1.513349645016825562038321 0.04344290228609438975215795 1.182980086763496307966648
1.506245893221252574178948 0.04741027071120060276676611 1.154220166931515523245366
1.50534631722387457486434 -0.04335881813172556831226245 1.151294864644399895681204
1.504615455578536487024621 -0.0126152140871916354503135 1.15258972928879943609104
1.505346317223874352819735 0.01812838995734229047274155 1.151294864644399895681204
1.505868278145751748553494 0.0101095689527610603508645 1.16597784709851337581199
1.507851962358305542011294 -0.0140769373778672629571318 1.178071100263827553078499
2.34685750302454199101021 -0.00857804632192370360155298 1.157186807147828178088389
2.348428751512270373780211 0.02161279003595280648331034 1.159659868832471296684616
2.348428751512270373780211 -0.0387688826798002067475224 1.159659868832471296684616
2.343104572246819117253835 -0.04685750302454317478551005 1.155615558660099795318388
2.343104572246819117253835 0.04685750302454316784661614 1.155615558660099795318388
2.341533323759090734483834 -0.01666666666666666296592325 1.15314249697545667672216
2.33778039298136697254904 0.002875811160305998762792834 1.151571248487728293952159
2.33778039298136697254904 0.03620914449363932252623499 1.151571248487728293952159
2.386679267186837538616828 -0.006836134556099091041936333 1.193515401742936798967776
2.378066530979013215585383 0.01352800226310756775971456 1.187030803485873420299868
2.386679267186837538616828 0.03389213908231423350025935 1.193515401742936798967776
2.371581932721950281006684 -0.03703080348587332870646804 1.180893045248641470834627
2.371581932721950281006684 0.03703080348587332176757414 1.180893045248641470834627
2.35648459825706257930733 0.01178609049728295173065096 1.168270688754346142701479
2.362969196514125957975239 -0.008578046321923710540446883 1.174408446991578092166719
2.35648459825706257930733 -0.0289421831411303676073743 1.168270688754346142701479
1.539937609848657462663368 0.01078456711735398428075872 1.223788007043352665803582
1.544968804924328864558447 0.03405551029934490020467663 1.232482428859691836464663
1.544968804924328864558447 -0.01248637606463692990843573 1.232482428859691836464663
1.535447932130418857710197 -0.03993760984865758062456464 1.218756811967681707997713
1.535447932130418857710197 0.03993760984865758756345855 1.218756811967681707997713
1.530416737054747677859723 -0.01666666666666666990481716 1.210062390151342537336632
1.525927059336509294951156 -0.01243746907249533920070128 1.205031195075671357486158
1.525927059336509294951156 0.02089586426083799713948608 1.205031195075671357486158
1.555753717046552964120565 -0.04333615687882255707030765 1.249089873925375515639757
1.554242047635213008760502 -0.01182307569473807842830304 1.248179747850751031279515
1.555753717046552964120565 0.01969000548934640368314852 1.249089873925375515639757
1.553331921560588746444864 -0.04817974785075113813848091 1.24614882415071925869654
1.553331921560588746444864 0.04817974785075114507737482 1.24614882415071925869654
1.550910126074624528769164 0.0422976483014384646574868 1.243207774376062779708718
1.551820252149248791084801 0.01078456711735398428075872 1.245238698076094774336298
1.550910126074624528769164 -0.02072851406673049262652242 1.243207774376063001753323
2.398886994907305503232919 -0.01367019891377638241003467 1.202611238969140128318713
2.399443497453652707207539 0.01855012932686202556387123 1.20355297029923780094407
2.399443497453653151296749 -0.04589052715441478691449362 1.20355297029923780094407
2.397874165251873357362911 -0.04888699490730508134817001 1.202054736422792702299489
2.397874165251873357362911 0.04888699490730508134817001 1.202054736422792702299489
2.397317662705525709299081 -0.01666666666666666990481716 1.201113005092695029674132
2.396304833050093563429073 0.012414997170412646332327 1.200556502546347603654908
2.396304833050093563429073 0.0457483305037459722641735 1.200556502546347603654908
2.434719705036322068281152 -0.007861601136782803145308662 1.242581306173105470946894
2.428487893258502339222105 0.01063434454276127039129562 1.235162612346210941893787
2.434719705036322068281152 0.02913029022230535086679382 1.242581306173105470946894
2.421069199431608254258208 -0.03516261234621074344142144 1.227412873382883962136702
2.421069199431608254258208 0.03516261234621075038031535 1.227412873382883962136702
2.407418693826894440235264 0.00482574676576769806546352 1.212244440592662453326511
2.414837387653788969288371 -0.01367019891377638241003467 1.219994179555989433083596
2.407418693826894884324474 -0.03216614459332046288553286 1.212244440592662453326511
1.585585732855566920562751 0.01198639459748747013168035 1.278740797776509952043966
1.592792866427783504690296 0.03090546078638795046700238 1.285860194836370595794506
1.592792866427783504690296 -0.006932671591413007601556462 1.285860194836370595794506
1.578547995247081114911225 -0.03558573285556713983179833 1.271533664204293589961026
1.578547995247081114911225 0.03558573285556714677069223 1.271533664204293589961026
1.57134086167486453078368 -0.01666666666666666296592325 1.264414267144432724165881
1.564303124066378725132154 -0.02623734283917093790261532 1.257207133572216362082941
1.564303124066378725132154 0.007095990494162398437572037 1.257207133572216362082941
1.606103629952344125086938 -0.04301434734482037502978358 1.299117977297164827632514
1.604374849030425709273118 -0.01144505941715802388447543 1.298235954594329166766897
1.606103629952344125086938 0.02012422851050432726083272 1.299117977297164605587909
1.603492826327589826362896 -0.04823595459432902798901921 1.296777841262575226011222
1.603492826327589826362896 0.0482359545943290141112314 1.296777841262575003966617
1.600882022702835749683459 0.04355568252514982474643546 1.29443770522798562438993
1.601764045405670966459866 0.01198639459748746839695688 1.29589581855973978719021
1.600882022702835749683459 -0.0195828933301748810136278 1.29443770522798562438993
2.447673273884825029256262 -0.008123382223856313866239276 1.256598368336580007209591
2.448836636942412603445973 0.02288322499430223491700964 1.259706647500397735939259
2.448836636942412159356763 -0.03912998944201485918004124 1.259706647500397735939259
2.445820475880459365924935 -0.04767327388482520827972522 1.25543500527899243301988
2.445820475880459810014145 0.04767327388482522909640693 1.255435005278992655064485
2.444657112822872235824434 -0.01666666666666666296592325 1.252326726115174704290212
2.442804314818507016582316 0.008307618427586489773251088 1.251163363057587352145106
2.442804314818506572493106 0.04164095176091982264399149 1.251163363057587352145106
2.469393088583516693290676 -0.02674158523124791145275658 1.296134673814764548538392
2.465494533569611679268974 -0.001138904268385453446080224 1.292269347629529274712468
2.469393088583516693290676 0.02446377669447700325955353 1.296134673814764548538392
2.461629207384375739309235 -0.04226934762952911511790788 1.283739649369503021958394