# geometry NO_DATA 660
#  x  y  z
1.8496559204358433703419 0.04776003875424712774577785 0.9481041183184040210818466
1.849311840871686207776747 -0.01666666666666666296592325 0.9485359398129663555110369
1.8496559204358433703419 0.01442670542091380181393134 0.9481041183184040210818466
1.847764282945898006715879 0.01357155081509036666231882 0.9493118408716858525053794
1.846560804584266968220163 -0.01907362338992895853251319 0.9496559204358427930259268
1.846560804584267190264768 0.04621672502010968491825693 0.9496559204358427930259268
1.849011818717918753662843 -0.04931184087168598295658484 0.9482359176591989013971329
1.84746426079213077464658 -0.04931184087168598295658484 0.9490118187179185094137779
1.847464260792130552601975 0.04931184087168599683437265 0.9490118187179185094137779
1.849011818717918753662843 0.04931184087168599683437265 0.9482359176591990124194353
1.895669693258499766130853 0.02910691160612426803266928 0.9334372183476242756938746
1.891339386516999399034944 -0.0166666666666666664353702 0.9352231490615618980655199
1.895669693258499766130853 -0.004226421727209065705432867 0.9334372183476242756938746
1.875600766515378214904786 -0.01481057333657611121968678 0.9404113398519540201192513
1.864192453255256953781327 0.008006053183666232350712555 0.9438135999284089638905471
1.890728001187335305388615 -0.04133938651699957389507034 0.9346117637318978044191908
1.863264406590211752501318 -0.03948329318690901174049301 0.9439657455347348902208182
1.874061334520668697933843 -0.04133938651699957389507034 0.9399521001286160748477982
1.874989381185714343303061 0.03948329318690901174049301 0.9397999545222900374952246
1.862653021260548102944199 0.04814390666990943368208633 0.9433543602050706855521867
1.890728001187335749477825 0.04133938651699957389507034 0.9346117637318975823745859
1.850928046665045734187061 0.04659210455247057847127934 0.9475201512175157603223852
1.851856093330090935467069 0.01511486454922780081622236 0.9473680056111897229698116
1.850928046665045734187061 -0.01636237545401496989994072 0.9475201512175157603223852
1.942836271470246289894135 0.02276013736936352907513914 0.9299238658991173522849749
1.935672542940492402152586 -0.01666666666666667684371106 0.9292163401549278223257033
1.942836271470246289894135 -0.01057319596396981073449517 0.9299238658991173522849749
1.926126042638711455268208 -0.002426333936895759026131092 0.9285523765756067415821917
1.923743270866684174080774 0.002339209607158795108799998 0.9285959387404751907979517
1.936553917703788929571829 -0.03567254294049214402573256 0.9300977149182245717895512
1.916623104501798291465775 -0.0214322102107212288102378 0.9295998676499230839453958
1.919887251037122322117057 -0.03567254294049214402573256 0.9304376802483511621488788
1.927007417402007982687451 0.02143221021072121840189695 0.9294337513389034910460396
1.917504479265094818885018 0.03575966727022908409061586 0.9304812424132196113646387
1.936553917703788929571829 0.03567254294049214402573256 0.9300977149182243497449463
1.907120166364885349707947 0.02352719235935377475876784 0.9306473587242392042639949
1.914240332729771232322946 0.004434191755791357103522188 0.9296434298147913111165508
1.907120166364885571752552 -0.01465880884777105361282956 0.9306473587242392042639949
1.997403393118534653538632 0.04058870781691378132327586 0.9431853146983790736612718
1.994806786237069085032658 -0.01666666666666665602702935 0.9426977470269913839118203
1.997403393118534653538632 0.007255374483580443248365022 0.9431853146983790736612718
1.983171598012669623045667 -0.00660370978213264438194674 0.9397753077948018951559561
1.974133016669735507520045 0.01147345290373572891662324 0.9373404362340004292164508
1.994768062313237777516406 -0.04480678623706906005264017 0.9426590231031599653732655
1.969101538227468362052264 -0.03474382935253504667283408 0.935915711890703105879652
1.978101395646571170061634 -0.04480678623706906005264017 0.938311859527673264302905
1.98313287408883809348481 0.03474382935253505361172799 0.9397365838709705876397038
1.969062814303637054536011 0.03993704311546598939575148 0.9358769879668715763187947
1.994768062313237777516406 0.04480678623706907393042798 0.9426590231031598543509631
1.955031478442267323103465 0.02702463754433737444515806 0.9320561159866042055810453
1.960062956884534468571246 0.003754261095538046714287228 0.9334808403299016399401467
1.955031478442267323103465 -0.01951611535326127147560449 0.9320561159866042055810453
2.008257266729521095527389 -0.04067678464642295044217946 0.9489340513759438877627872
2.005727556300844760528435 -0.009475348561201805269726961 0.9478681027518878199344954
2.008257266729520651438179 0.02172608752401933296383163 0.9489340513759438877627872
2.004661607676788470655538 -0.04786810275188780466892879 0.9468250121658662310508703
2.004661607676788026566328 0.0478681027518878116078227 0.9468250121658661200285678
2.001065948624055845783687 0.04365002433173252593956448 0.9447159729557884633166509
2.002131897248112135656584 0.01244858824651138597128242 0.945759063541810052200276
2.001065948624056289872897 -0.0187528478387097574664466 0.9447159729557885743389534
1.748686602827328906428761 0.04172256843619235461284589 0.9930359656088632025472407
1.747373205654657812857522 -0.0166666666666666594964763 0.9945478870454250719390643
1.748686602827328906428761 0.008389235102859016537935055 0.9930359656088632025472407
1.740603296219943807443542 0.003126847797237784776225311 0.9973732056546579238798245
1.735146783957900229466986 -0.02757969119075368014115668 0.998686602827328906428761
1.735146783957900229466986 0.0338333867852292427547134 0.998686602827328906428761
1.746392694424745872794347 -0.04737320565465812094441134 0.993567375815513131875889
1.739622784990031423291157 -0.04737320565465812094441134 0.9963926944247459838166492
1.739622784990031423291157 0.04737320565465813482219914 0.9963926944247459838166492
1.746392694424745872794347 0.04737320565465813482219914 0.993567375815513131875889
1.793479414335010568848361 0.01706870778717091766130132 0.9735892934521604979991594
1.786958828670020871243196 -0.0166666666666666525575824 0.9770137682285959801475883
1.793479414335010346803756 -0.01626462554616242561777995 0.9735892934521604979991594
1.7743688844826011052902 -0.008513221708172615670440209 0.9828821061907739853324983
1.768299525960171258986975 0.003625495336687580005818887 0.985325969376516397346677
1.786246855963814050838323 -0.03695882867002089205987758 0.9763017955223891597427155
1.764222803480923973395988 -0.0288053837115268551727354 0.9865773732465303869076934
1.769580189297147443383551 -0.03695882867002088512098368 0.9834215373545811544886419
1.773656911776394284885328 0.02880538371152688639775796 0.9821701334845670539053231
1.763510830774717152991116 0.04184655504150597976620318 0.985865400540323677525123
1.786246855963814272882928 0.03695882867002091287655929 0.9763017955223889376981106
1.754076722479246841501777 0.03619591782304019261795602 0.9902726403022870105274933
1.758153444958494127092763 0.01101602944820089316491085 0.9890212364322730209664769
1.754076722479246841501777 -0.0141638589266384149617517 0.9902726403022870105274933
1.823828964374526906411234 -0.04301348157915138581408598 0.9587098556336481891548829
1.808709855633648277972725 -0.04301348157915139275297989 0.9654314618588899499229683
1.808709855633648277972725 0.04301348157915139275297989 0.9654314618588897278783634
1.823828964374526906411234 0.04301348157915138581408598 0.9587098556336481891548829
1.833731476692181505683266 -0.01277526409739435098167348 0.9534932592104242710107087
1.822105627161727081642084 0.01357155081509036145814839 0.9569865184208485864303384
1.833731476692181505683266 0.03991836572757508083686417 0.9534932592104241599884062
1.80698651842084867524818 -0.003223454216183325310440821 0.9637081246460903471984238
1.803493259210424470850853 0.02312336069630139406827496 0.9669364716609074594799722
1.803493259210424248806248 -0.02957026912866804815860355 0.9669364716609076815245771
2.043096850050399648779376 -0.001809541242177533900206687 0.964331712661844031586611
2.046548425025199513527241 0.02462064214155599423117238 0.968308700399288735383152
2.046548425025199513527241 -0.02823972462591106680207531 0.9683087003992888464054545
2.03347741741126553094432 -0.04309685005040019001310014 0.9608801376870443888833506
2.03347741741126553094432 0.04309685005040020389088795 0.9608801376870441668387457
2.030025842436465666196455 -0.01666666666666665602702935 0.9569031499495995740645071
2.020406409797331548361399 -0.01637849851080160762384352 0.9534515749747998203389443
2.020406409797331548361399 0.01695483482253172871634384 0.9534515749747997093166418
2.081917278093382339676509 -0.01350841514790717540206444 0.9954256932412893776884744
2.07282009918475695897655 0.01067630466800511060410095 0.9908513864825787553769487
2.081917278093382339676509 0.03486102448391739661026634 0.9954256932412893776884744
2.068245792426046225642722 -0.04085138648257894550264169 0.9861875892868672277558062
2.068245792426046225642722 0.04085138648257895244153559 0.9861875892868672277558062
2.054574306758710555698144 0.02237517857373473931237307 0.9769494853324451888454405
2.059148613517420844942762 -0.001809541242177541923302764 0.981613282528156716466583
2.054574306758710111608934 -0.0259942610580898188221699 0.9769494853324449668008356
1.599765948638523171965176 0.04848813717744597517889105 1.048722188538922184264379
1.599531897277046699201719 -0.01666666666666666990481716 1.049010017227246294169163
1.599765948638523171965176 0.01515480384411263710398021 1.048722188538922184264379
1.598644813278984333493327 0.01489249867054173726010902 1.049531897277046876837403
1.597991780642398218503786 -0.01797273193983867090040007 1.04976594863852334960086
1.597991780642398440548391 0.04775772928092214542061811 1.04976594863852334960086
1.599325704354991994904367 -0.04953189727704707806532625 1.048803824305191811916416
1.598438620356929629195974 -0.04953189727704707806532625 1.049325704354992172540051
1.598438620356929629195974 0.04953189727704707806532625 1.049325704354992172540051
1.599325704354991994904367 0.04953189727704707806532625 1.048803824305191589871811
1.64552339600863395396857 0.02607717111961123726548983 1.0305537751109774546876
1.641046792017267552665771 -0.01666666666666666296592325 1.033561981568439369638668
1.64552339600863395396857 -0.007256162213722093870527097 1.0305537751109774546876
1.624938588525711935517393 -0.0155497403164447534767989 1.040488328842156251496931
1.613306989025522053537998 0.00771345868393416306957322 1.044406469658411662493336
1.63980467302339083524032 -0.04104679201726749160350494 1.032319862574562652213217
1.612748525850411285276209 -0.03992986566704559425744492 1.044443052783722070131489
1.623138006356724005740944 -0.04104679201726750548129274 1.039282792973590385798843
1.623696469531834996047337 0.03992986566704558037965711 1.039246209848279756116085
1.611506406856534567850758 0.04888307364977807767392193 1.043200933789845352706038
1.63980467302339083524032 0.04104679201726750548129274 1.032319862574562430168612
1.600558463175110635035026 0.04783931355017698172638063 1.048397776725287666721442
1.601116926350221625341419 0.01562290656706556007948805 1.048361193599977259083289
1.600558463175110635035026 -0.01659350041604585462851063 1.048397776725287666721442
1.69205817887759679685189 -0.008810421040536434156287271 1.011869943935468363349628
1.696029089438798376221484 0.01658109117039355956402247 1.011827156187331766545867
1.696029089438798376221484 -0.03420193325146642093770311 1.011827156187331766545867
1.675456006489131510761581 -0.03065250636836217706937546 1.01673116094486770677463
1.686419836901180691057789 -0.04205817887759666362512689 1.014956447503315928315715
1.662760250383666482676404 -0.03859432749076550928091223 1.021942106601504862695151
1.662760250383666482676404 0.03859432749076551621980613 1.021942106601504862695151
1.675456006489131510761581 0.03065250636836217013048156 1.016731160944867928819235
1.686419836901180691057789 0.04205817887759666362512689 1.01495644750331570627111
1.681094348465547172466472 -0.005260994157432195492130056 1.013644657377020585897753
1.674101428614699571539859 0.00872484554426331687659868 1.015376583070436211642118
1.661405672509234543454681 0.001697045769010392364875561 1.020587528727072923473429
1.655702836254617338340722 0.02362470659310924453455627 1.024066548690294009560375
1.655702836254617338340722 -0.02023061505508845503431559 1.024066548690294453649585
1.715293897209683615656672 -0.0458298186033181259579905 1.005397139977731280069406
1.70539713997773145770509 -0.04582981860331813983577831 1.009325262790796484679845
1.70539713997773145770509 0.0458298186033181259579905 1.009325262790796484679845
1.715293897209683615656672 0.0458298186033181259579905 1.005397139977731280069406
1.721878605162245223780815 -0.02603630413941368515473584 1.002085090698340952286571
1.714066938628634240160409 0.003126847797237777837331407 1.004170181396681904573143
1.72187860516224544582542 0.03228999973388924082939866 1.002085090698340952286571
1.704170181396682082208827 -0.008810421040536428952116843 1.008098304209746887138976
1.70208509069834090787765 0.02035273089611503577467388 1.009941336324471139462844
1.70208509069834090787765 -0.03797357297718789020946062 1.009941336324471139462844
2.09804355933206920781231 -0.01233988378373597136206108 1.004119832109395815677999
2.099021779666034426270471 0.01903700888166672683388114 1.005305003216895975981515
2.099021779666034426270471 -0.0437167764491386695580033 1.005305003216895975981515
2.096026598666703932849487 -0.04804355933206936463131242 1.003141611775430597219838
2.096026598666703932849487 0.04804355933206936463131242 1.003141611775430597219838
2.095048378332738714391326 -0.01666666666666666990481716 1.001956440667930436916322
2.093031417667372995339292 0.00871986400007446899040886 1.000978220333965218458161
2.093031417667372995339292 0.04205319733340780186114927 1.000978220333965218458161
2.135740891510736538805304 0.008514256270819905991764642 1.026849569958006691550167
2.142870445755368002949126 0.02758848111488962362436439 1.032310477182118102490449
2.142870445755368002949126 -0.0105599685732497977630473 1.032310477182118102490449
2.119231108420430054195549 -0.02754028696980334589561323 1.016823550243026730299789
2.131797472816630012459882 -0.035740891510736380598523 1.025313709441303622327268
2.109693995998394910884599 -0.04179939545906695419485999 1.011857387439860200828434
2.109693995998394910884599 0.0417993954590669680726478 1.011857387439860200828434
2.119231108420430054195549 0.02754028696980333548727238 1.016823550243026730299789
2.131797472816630012459882 0.035740891510736380598523 1.025313709441303400282663
2.123174527114536580540971 -0.008466062125733631732460438 1.018359410759730021567293
2.11773771696296808642046 0.00240755817740303601839913 1.0153301587855647625247
2.10820060454093294310951 -0.01233988378373597656623151 1.010363995982398233053345
2.104100302270466293919071 0.01279284500866431813215218 1.008427085153396962624583
2.104100302270466293919071 -0.03747261257613626606044477 1.008427085153396962624583
2.163112210351378461581362 -0.03507742332589717376700733 1.048189633677275356404834
2.159271654659775663276378 -0.005364822638012333062829118 1.046379267354551112489958
2.163112210351378461581362 0.02434777804987250937607257 1.048189633677275356404834
2.157461288337050753227686 -0.04637926735455150106801625 1.044113428479352068123376
2.157461288337051197316896 0.04637926735455151494580406 1.044113428479352068123376
2.15181036632272437714164 0.03822685695870476491053935 1.040037223281428779841917
2.153620732645448399011912 0.008514256270819916400105498 1.042303062156627824208499
2.15181036632272437714164 -0.02119834441706492517143445 1.040037223281428779841917
1.546129157431136214029266 0.02641463541987329813331975 1.08028547798873697516342
1.542258314862272161605006 -0.01666666666666666990481716 1.084336475141072675398846
1.546129157431136214029266 -0.006918697913460032135335442 1.08028547798873697516342
1.532924061436603091479469 -0.002001840184671642517560963 1.092258314862271983969322
1.527460650579797851733588 -0.0275934883802771042937696 1.096129157431136036393582
1.527460650579797629688983 0.02358980801093382012600941 1.096129157431136036393582
1.540625794563230011036126 -0.04225831486227213384943013 1.08270395484203074687457
1.531291541137560940910589 -0.04225831486227213384943013 1.090625794563230055445047
1.531291541137560940910589 0.04225831486227213384943013 1.090625794563229833400442
1.540625794563230011036126 0.04225831486227211997164233 1.082703954842030524829966
1.575721714143016427556176 -0.04205970950464965607551449 1.059942131474412185809797
1.559942131474412407854402 -0.04205970950464965607551449 1.068686958419879484694093
1.559942131474412407854402 0.04205970950464965607551449 1.068686958419879484694093
1.575721714143016427556176 0.04205970950464965607551449 1.059942131474412185809797
1.585529310584883333490325 -0.01050054416744124891058831 1.053970145247675072042171
1.5737198731639543414218 0.01489249867054173899483249 1.057940290495350321720025
1.585529310584883333490325 0.04028554150852473036970025 1.053970145247675072042171
1.557940290495350321720025 0.0008229872242678399349782858 1.066685117440817620604321
1.553970145247675072042171 0.02621603006225082382885105 1.071459799138609447766157
1.553970145247675072042171 -0.02457005561371514504309665 1.071459799138609669810762
2.192957788977386357487376 -0.001185033835471328237526345 1.064783027438210627479975
2.19647889448869282347232 0.02510608847524860992583839 1.069002738342501590551592
2.19647889448869282347232 -0.0274761561461912690029763 1.069002738342502034640802
2.185463149836353480282014 -0.04295778897738659896088365 1.061261921926904161495031
2.185463149836353480282014 0.04295778897738661283867145 1.061261921926904161495031
2.18194204432504657020786 -0.01666666666666666296592325 1.057042211022613198423414
2.174447405184014137091708 -0.01240703366062572733652392 1.053521105511306510393865
2.174447405184014137091708 0.02092629967270760726893997 1.053521105511306510393865
2.229816423174794337569438 -0.01589597054508962506447212 1.095712393719883603893095
2.221339621007571096811262 0.00886215022801168164634511 1.091424787439767785102163
2.229816423174794337569438 0.03362027100111299182660929 1.095712393719883603893095
2.217052014727454611886515 -0.04142478743976797661563438 1.086786543468814869584094
2.217052014727455055975724 0.04142478743976797661563438 1.086786543468814869584094
2.204287606280115774382011 0.02357308693762998064169523 1.077860693217745691185883
2.208575212560232259306758 -0.001185033835471333008015904 1.082498937188698828748556
2.204287606280115774382011 -0.02594315460857263971883313 1.077860693217745913230488
1.499385209905041094202716 0.04483923358997234098755058 1.145454023684931321724889
1.498770419810082188405431 -0.01666666666666666990481716 1.146804826700027257757597
1.499385209905041094202716 0.01150590025663901679042755 1.145454023684931321724889
1.497873820089835827928937 0.01487346722617442947023125 1.148770419810082099587589
1.497592010464548595294332 -0.01723028591724119762407241 1.149385209905041005384874
1.497592010464548595294332 0.04697722036959006697287577 1.149385209905041005384874
1.498580298851921677183441 -0.04877041981008230220329125 1.146614705741867190624816
1.497683699131675538751551 -0.04877041981008229526439735 1.148580298851922032454809
1.497683699131675760796156 0.04877041981008228832550344 1.148580298851922032454809
1.498580298851921899228046 0.04877041981008229526439735 1.146614705741867190624816
1.514844851594782326742461 -0.04457503604936835506222792 1.107512438353784656186463
1.507512438353784567368621 -0.04457503604936835506222792 1.122213511910396421811242
1.507512438353784567368621 0.04457503604936835506222792 1.122213511910396199766637
1.514844851594782326742461 0.04457503604936835506222792 1.107512438353784656186463
1.517377308457311002598544 -0.02991020956737332203712043 1.10271248197531579471331
1.512757377191628949120172 -0.002001840184671639048114011 1.105424963950631500608779
1.517377308457310558509334 0.02590652919803004133880719 1.10271248197531579471331
1.505424963950631411790937 0.01273548044655671736269387 1.120126037507243266233559
1.502712481975315705895468 0.04064384982925840078538116 1.132114629088539103918265
1.502712481975315705895468 -0.01517288893614496259054647 1.132114629088539103918265
2.247416637559957131031751 -0.01085771841058866434004404 1.105487836568081583266121
2.248708318779978565515876 0.01989225248270189844168598 1.107100629476099218351237
2.248708318779978121426666 -0.04160768930387923059122102 1.107100629476099218351237
2.244806060560650795565607 -0.0474166375599572309518237 1.104196155348060148781997
2.244806060560651239654817 0.04741663755995723789071761 1.104196155348060148781997
2.243514379340629361081483 -0.0166666666666666664353702 1.102583362440042735741486
2.240903802341323469704548 0.006278787787968916761505156 1.101291681220021079212756
2.240903802341323469704548 0.03961212112130225310169251 1.101291681220021079212756
2.283977944922157554685782 0.01085629323201437942958414 1.129783535027182761467657
2.291988972461078688525049 0.0281675714875052191077387 1.13553398743760247668888
2.291988972461078688525049 -0.006454985023476461115932157 1.135533987437602032599671
2.273977720797184076673148 -0.01998365235362933173268729 1.123333109208359603670146
2.283647241179586728776485 -0.03397794492215749917463086 1.130097442873436053289993
2.265322081669438603057642 -0.03600570743147182839472009 1.118226555797477317355515
2.265322081669438603057642 0.0360057074314718422725079 1.118226555797477317355515
2.273977720797184076673148 0.01998365235362935601881595 1.123333109208359603670146
2.283647241179586728776485 0.03397794492215751305241866 1.130097442873436275334598
2.274308424539754902582445 -0.002672374098138485549319698 1.123019201362106311847811
2.272649931696273828407584 0.0006446115888241916742212867 1.122005320107449133359978
2.263994292568528354792079 -0.01085771841058865740115014 1.116898766696567069089951
2.256997146284263955351435 0.00848132235421650976237018 1.112806094540341961263152
2.256997146284263955351435 -0.03019675917539383497301131 1.112806094540341961263152
2.308938735667993569222745 -0.03979388212014915715553087 1.148732617788142507109228
2.306370441151782912925228 -0.008995313210530889169724844 1.147465235576284880991693
2.308938735667993569222745 0.02180325569908738228552814 1.148732617788142507109228
2.305103058939925730896903 -0.04746523557628493095172928 1.145827431070816304625737
2.305103058939925730896903 0.04746523557628493789062318 1.145827431070816304625737
2.301267382211857892571061 0.04165486214163263700704931 1.142922244353490102142246
2.302534764423715074599386 0.01085629323201437075596676 1.144560048858958678508202
2.301267382211857892571061 -0.01994227567760389896456275 1.142922244353490102142246
1.498849516908020262917489 -0.01223154250817140749341139 1.153368045171227151968196
1.499424758454010131458745 0.01995130773318255085202466 1.155010365704485231219678
1.499424758454010131458745 -0.04441439274952535543050658 1.155010365704485009175073
1.49852815873376377098225 -0.04884951690802061957663582 1.152792803625237283426941
1.49852815873376421507146 0.04884951690802061263774192 1.152792803625237283426941
1.497952917187774346530205 -0.01666666666666666990481716 1.151150483091979426220064
1.497631559013517632550361 0.01372298413419505321020342 1.150575241545989779723413
1.497631559013517632550361 0.04705631746752837740732645 1.150575241545989557678809
1.514811914016639393665287 -0.03260966831866748960599978 1.197421582335306711186718
1.511273583505359230372278 -0.004433170314720687177345582 1.194843164670613466782356
1.514811914016639393665287 0.02374332768922610831241471 1.197421582335306711186718
1.508695165840665985967917 -0.04484316467061347233347135 1.182972477747887829480078
1.508695165840666208012522 0.04484316467061345845568354 1.182972477747887829480078
1.502578417664693022359756 0.01594495549577539666996628 1.168523373160468503684228
1.505156835329386044719513 -0.01223154250817139881979401 1.180394060083194363031112
1.502578417664693022359756 -0.0404080405121181943095543 1.168523373160468725728833
2.341323785739514384829363 0.001661134110715022094151294 1.167840114649175475847187
2.345661892869756570689788 0.0263182531835634350714237 1.172665907907624038841732
2.345661892869756570689788 -0.02299598496213338741367416 1.172665907907624038841732
2.332830902931158245650067 -0.04132378573951507594319565 1.163502007518933289986762
2.332830902931158689739277 0.04132378573951507594319565 1.163502007518933289986762
2.328492795800916059789643 -0.0166666666666666664353702 1.158676214260484726992217
2.319999912992559920610347 -0.0176715274710158055937459 1.154338107130242541131793
2.319999912992559920610347 0.01566180586231752380754756 1.154338107130242541131793
2.374479676184930720950206 -0.022107931077997969998572 1.196587607262928898421706
2.367358427198071879615782 0.004400616781193003070049574 1.193175214525857619207727
2.374479676184930720950206 0.03090916464038398481228853 1.196587607262928898421706
2.363946034461000156312593 -0.04317521452585765251441785 1.189084840984953039821903
2.363946034461000600401803 0.04317521452585763863663004 1.189084840984953039821903
2.353412392737070479853401 0.02816968196990599776485809 1.181582074706977181222101
2.356824785474141314978169 0.001661134110715022094151294 1.185672448247881760607925
2.353412392737070479853401 -0.02484741374847595010710855 1.181582074706976959177496
1.539746673016281874879496 0.005036870829757224450606845 1.221105095731930045843683
1.544873336508140848621906 0.02811687717937262978584734 1.226830200988282992824452
1.544873336508140848621906 -0.01804313551985817914991017 1.226830200988282992824452
1.534323418017447204775294 -0.03974667301628206916852548 1.215978432240071072101273
1.534323418017447204775294 0.03974667301628206916852548 1.215978432240071072101273
1.529196754525588453077489 -0.01666666666666666990481716 1.210253326983718125120504
1.523773499526753782973287 -0.01468649729843862251910114 1.205126663491859151378094
1.523773499526753782973287 0.0186468360348947155558097 1.205126663491859151378094
1.565395044586562089961035 -0.03227649370086721480888059 1.247671538287429271463225
1.561190214862137048967838 -0.003600083792675214111600468 1.245343076574858542926449
1.565395044586562089961035 0.02507632611551677964678575 1.247671538287429271463225
1.558861753149566320431063 -0.04534307657485865672430947 1.241856640368974584731632
1.558861753149566320431063 0.04534307657485867060209728 1.241856640368974584731632
1.552328461712570550901091 0.03371328073794922774997218 1.236041742450519898000039
1.554656923425141279437867 0.005036870829757227052692059 1.239528178656403856194856
1.552328461712570550901091 -0.02363953907843477364458806 1.236041742450519898000039
2.396025941388836955070474 -0.007748008340639699412233377 1.208433387774176637208257
2.398012970694418655170921 0.02161126638153068602044016 1.210905687631608440568698
2.398012970694418655170921 -0.03710728306281008137545996 1.210905687631608440568698
2.391879945751681724175342 -0.04602594138883704666387331 1.206446358468595159152414
2.391879945751681724175342 0.04602594138883704666387331 1.20644635846859493710781
2.389892916446100024074894 -0.0166666666666666664353702 1.203974058611162911702763
2.385746920808944793179762 0.0004265581700300564993444397 1.201987029305581433646921
2.385746920808944793179762 0.0337598915033633928395318 1.201987029305581433646921
2.4400725342088951386188 -0.002917898994156372608627104 1.242990433203051914290427
2.430550617299869209375629 0.01639630074528050651672118 1.235980866406103828580854
2.44007253420889469452959 0.03571050048471739041255901 1.242990433203051914290427
2.423541050502921567755266 -0.03598086640610354686176109 1.230783095699398810296543
2.423541050502921123666056 0.03598086640610354686176109 1.230783095699398588251938
2.407009566796947996891731 0.01156619139879718274888099 1.218575758195745484258055
2.414019133593895638512095 -0.007748008340639701146956853 1.223773528902450502542365
2.407009566796947996891731 -0.02706220808007658157334774 1.21857575819574570630266
1.592652551543794370303431 7.272838846153715036354538e-06 1.265684418208961936613832
1.596326275771897451605241 0.02599315771597394270076009 1.270347663733615739545257
1.596326275771897451605241 -0.02597861203828163989548727 1.270347663733615739545257
1.586192900542226391635836 -0.04265255154379446467238779 1.262010693980859077356627
1.586192900542226391635836 0.04265255154379445079459998 1.262010693980859077356627
1.582519176314123310334026 -0.0166666666666666664353702 1.257347448456205274425201
1.576059525312555331666431 -0.01094753224888075915366414 1.253673724228102637212601
1.576059525312555331666431 0.02238580108445257371707626 1.253673724228102637212601
1.624356019303169862411096 -0.02198581621166035421355289 1.296341835514830176379064
1.617665256379340110726162 0.004031188151332867897203016 1.292683671029660086304602
1.624356019303169862411096 0.03004819251432609000795892 1.296341835514830176379064
1.614007091894169798607095 -0.04268367102965989201557306 1.288012138600919787023713
1.6140070918941700206517 0.04268367102965989895446697 1.288012138600919787023713
1.603658164485170178892304 0.02602427720183938045228622 1.279682441687009619712967
1.607316328970340268966766 7.272838846157184483306492e-06 1.284353974115749696949251
1.603658164485170178892304 -0.02600973152414706723867255 1.279682441687009619712967
2.449904961459394403533452 -0.01635201259813093624395641 1.250252365574873181230942
2.449952480729696624450753 0.01688628219459704232763286 1.250362173338838367442349
2.449952480729696624450753 -0.04959030739085891481554569 1.250362173338838367442349
2.449817297769004031948725 -0.04990496145939463806806557 1.25020484630457051622443