# geometry NO_DATA 624
#  x  y  z
1.834338731422939794413196 0.01308489122030465252877196 1.030537047520546423129417
1.842169365711470163660124 0.03075695597657730068208437 1.037582192175501516473446
1.842169365711470163660124 -0.004587173535967989553008284 1.037582192175501516473446
1.812010600970240803420097 -0.03467140927835850316984789 1.04668201024859897074748
1.810982285112221479295158 -0.007974055447826845777203886 1.043364020497198119130644
1.812010600970241025464702 0.01872329838270496427110601 1.04668201024859897074748
1.833016286770814406992258 -0.01802216346549658648745762 1.032010888681207827488606
1.841524669458759477791432 -0.03433873142293931285395914 1.038728383645971975468569
1.82749824414407857631204 -0.02704745253975574664773163 1.037528931307943436124219
1.823686265774776993353612 -0.04336402049719846607533924 1.046037313995888506923393
1.827498244144078798356645 0.02704745253975559052261879 1.037528931307943214079614
1.823686265774777215398217 0.04336402049719832729746116 1.046037313995888506923393
1.833016286770814184947653 0.01802216346549657954856372 1.032010888681207827488606
1.841524669458759477791432 0.03433873142293931285395914 1.038728383645972197513174
1.825830348734994501569417 -0.0003500987092239438093661807 1.023819552555782053104849
1.825152600335579577972567 0.001005398089605971526441786 1.02414720224597322051352
1.819634557708843747292349 0.01003068716386498228365642 1.029665244872708607104528
1.814794263481523062253586 -0.0003500987092240927245345716 1.03485563780925304833147
1.887695359436711406431186 0.007503604895792902185203133 1.024389776344518221407043
1.893847679718355658806672 0.02853229766583754989373034 1.030322591844103907732233
1.893847679718355658806672 -0.01352508787425172644136584 1.030322591844103685687628
1.882578089700153611829592 -0.02290959612158707803253321 1.02821606359677497621874
1.891851874709257863571565 -0.03769535943671131761334436 1.032908317720442781251222
1.872063743315131256750306 -0.03521423668487576319474641 1.036939522258616408478815
1.872063743315131256750306 0.03521423668487577707253422 1.036939522258616408478815
1.882578089700153611829592 0.02290959612158706762419236 1.028216063596775198263344
1.891851874709257863571565 0.03769535943671129679666265 1.032908317720442781251222
1.878421574427606710600003 -0.00188090335154245222488989 1.019697522220850638419165
1.87530010970014648918891 0.004362026103377965660645721 1.020938083596768297667268
1.864785763315124356154229 0.01308489122030466467183629 1.029661542258609729927343
1.857392881657562222486035 0.03163246123851376490065945 1.037144439544533280894711
1.857392881657562222486035 -0.005462678797904437291710344 1.037144439544533280894711
1.937313159541310669808922 0.008513901842683200063555127 1.025277124713363630092999
1.943656579770655312700001 0.02916039471732743276755073 1.031523988738693997646578
1.943656579770655312700001 -0.01213259103196104998767524 1.031523988738693997646578
1.928694882931154985783451 -0.02499713852662478752453268 1.024715056723177308839468
1.939203539090478489725911 -0.03731315954131089046574843 1.031147330470509215771813
1.918371636493832799175152 -0.03768397898531389289544791 1.03045677227506282669367
1.918371636493832799175152 0.0376839789853138720787662 1.03045677227506282669367
1.928694882931154985783451 0.02499713852662479446342658 1.024715056723177308839468
1.939203539090478489725911 0.03731315954131092516021795 1.031147330470509215771813
1.926804503381986721777253 -0.004350645651980536605940575 1.018844850966031945205259
1.922639267452007860725871 0.003979826207977568003348878 1.018659441244030405826493
1.912316021014685896162177 0.007503604895792906522011823 1.024401156795915479591486
1.90615801050734257060526 0.02852091721444013211472779 1.030328282069802314779849
1.90615801050734301469447 -0.01351370742285430345819286 1.030328282069802314779849
1.984847058850171652721883 0.01445989968863099772722336 1.030716224327476560063133
1.992423529425085604316337 0.03264029187213617066998239 1.03870303693021148738751
1.992423529425085604316337 -0.003720492494874180853386969 1.03870303693021148738751
1.979720552169015101995342 -0.02166079355241253695529835 1.028206826652176220093793
1.989794086186801980176142 -0.03484705885017183590868228 1.037176977180945591783257
1.970630356077262668179628 -0.03681373470224069688327972 1.033220640331937278943997
1.970630356077262224090418 0.03681373470224071076106753 1.033220640331937278943997
1.979720552169015101995342 0.02166079355241255083308616 1.028206826652176220093793
1.989794086186801980176142 0.03484705885017184284757619 1.037176977180945591783257
1.974773524832384774541083 -0.003480401368907364012539318 1.021746073798707410418274
1.972276461389511847954736 0.001513725516838524721985326 1.020762735872672966053187
1.963186265297759192094418 0.008513901842683193124661223 1.025776549552433802858786
1.956593132648879462820446 0.02866096987825722530729422 1.031773701158229084029472
1.956593132648879684865051 -0.01163316619289084946631263 1.031773701158229084029472
2.010130461925987432891816 -0.03602522140455109711520976 1.046155683330538987974023
2.010831705967184745986742 -0.01038052141013953710846351 1.04231136666107815358373
2.010130461925987432891816 0.01526417858427202983717663 1.046155683330538987974023
2.006987389297723911596449 -0.04231136666107822297266949 1.045052299841521037393477
2.006987389297723911596449 0.04231136666107822297266949 1.045052299841521037393477
2.003844316669460390301083 0.0401045996830425577339696 1.043948916352503308857536
2.007688633338921224691376 0.01445989968863099425777641 1.041207983172060203003184
2.003844316669460390301083 -0.01118480030578057095314026 1.043948916352503308857536
1.696241808054771205149791 0.04122474365723667599770152 1.094982935602465179414367
1.692483616109542232663898 -0.01666666666666666296592325 1.091854179883389175387265
1.696241808054771205149791 0.007891410323903343126961119 1.094982935602465179414367
1.686700459129797824431307 0.005100352707178398142806586 1.092483616109542143846056
1.684675494095282610729214 -0.02071659673569719445351822 1.096241808054770894287344
1.684675494095282610729214 0.03091730215005398380023749 1.096241808054770894287344
1.69593484020340068418875 -0.04248361610954226597058891 1.095305403977247626912117
1.690151683223656498000764 -0.04248361610954226597058891 1.095934840203400373326303
1.690151683223656498000764 0.04248361610954226597058891 1.095934840203400595370908
1.69593484020340068418875 0.04248361610954226597058891 1.095305403977247848956722
1.735601264838244839339154 0.01095801842950295396095228 1.078211077709839704752426
1.742800632419122308647275 0.02989261660108109841527124 1.084824052677046957171569
1.742800632419122308647275 -0.007976579742075190493366676 1.084824052677046957171569
1.732958246279277858548085 -0.01977688004150077172305089 1.080690314774365834438186
1.741712720547572645912737 -0.03560126483824480742024221 1.08659046492407873607533
1.723490947193488498356828 -0.03417561520325596013947234 1.089528177634002226170651
1.723490947193488942446038 0.03417561520325596707836624 1.089528177634002226170651
1.732958246279277858548085 0.01977688004150077866194479 1.080690314774365834438186
1.741712720547572423868132 0.03560126483824481435913611 1.086590464924078958119935
1.726846790569950274019106 -0.0008422818699226269434712777 1.072310927560126803115281
1.725291683882533178007179 0.002267931504911482789438315 1.07302375237762115389728
1.715824384796743817815923 0.01540779421436108687082367 1.081861615237257545629745
1.707912192398372219770408 0.03291674275095038404437275 1.089986653279399364535607
1.707912192398372219770408 -0.002101154322228214639534105 1.089986653279399364535607
1.79616213077687048027542 -0.009087802804419214258713211 1.057627301154252963399927
1.798081065388435151319868 0.02040766130578478346202509 1.059497798473812091302193
1.798081065388435151319868 -0.038583266914623104426596 1.059497798473812091302193
1.78520257534128212739688 -0.0324983950686745862168614 1.072373777897744462350715
1.795037374153850340263716 -0.04616213077687066068666155 1.069331341974770310798704
1.770454843286179968941951 -0.03633626429180392136686351 1.084267185834264513033531
1.770454843286179968941951 0.03633626429180392136686351 1.084267185834264513033531
1.78520257534128212739688 0.03249839506867447519455894 1.072373777897744462350715
1.795037374153850340263716 0.04616213077687054966435909 1.069331341974770310798704
1.786327331964301823319374 -0.003002930958470701686829907 1.060669737077227114951938
1.778411467763297837407777 0.01282879744353721852834216 1.065582670319760616450822
1.763663735708196123042057 0.01095801842950295049150533 1.077476078256280667133638
1.756831867854097950498726 0.03062761605464020889244559 1.08445655295026766040678
1.756831867854097950498726 -0.00871157919563430097054102 1.084456552950267438362175
1.81000724560657078043846 -0.04622533843052424595843064 1.05566093999715082674129
1.80566093999715082674129 -0.04622533843052424595843064 1.0594503719282744036434
1.805660939997151048785895 0.04622533843052413493612818 1.059450371928274847732609
1.81000724560657122452767 0.04622533843052414881391599 1.05566093999715082674129
1.810579942003577968989703 -0.03753272721168427611404539 1.051887330784737617506153
1.808120967178895810434369 -0.007974055447826804143840462 1.053774661569475634692594
1.810579942003578191034308 0.02158461631603078578756083 1.051887330784737617506153
1.803774661569475634692594 -0.009087802804419212523989735 1.057564093500599433639309
1.801887330784737617506153 0.02047086895943837220324113 1.059466194646985437444187
1.801887330784737617506153 -0.03864647456827668969836509 1.059466194646985215399582
2.0383358293052467047346 0.007318636829064105453479527 1.07365682244261795297291
2.044167914652623263549458 0.02898779946764464682251727 1.079817388843106851226139
2.044167914652623263549458 -0.01435052580951643938500517 1.079817388843106851226139
2.030644320614220177390052 -0.038335829305247204334961 1.067824737095241616202657
2.030644320614220177390052 0.0383358293052472112738549 1.067824737095241616202657
2.024812235266844062664404 -0.01666666666666666296592325 1.061664170694752495904822
2.017120726575817091230647 -0.02204469210489232167127227 1.055832085347376159134569
2.017120726575817091230647 0.01128864122844101119946814 1.055832085347376159134569
2.081164726501403272607149 0.01109560410165245404601198 1.079930877600248750880496
2.086404066326941197928591 -0.0006169244505774829079314259 1.085787141876363603998357
2.09047100947943409465779 0.008750810755562660539497166 1.094428937434985815713162
2.089298612806389066065549 -0.01901146001275644953354416 1.097214468717492730220897
2.089298612806388621976339 0.03651308152388191285986352 1.097214468717492730220897
2.079233929830835769791975 -0.01495719744278847795904142 1.078617005380258397906346
2.070592134272213336032564 -0.03100693965887780026435827 1.082584786020079015145257
2.076589874095274179666148 -0.04442893743498591702101308 1.092540453798691579834212
2.070592134272213336032564 0.03100693965887766495592714 1.082584786020079015145257
2.076589874095274179666148 0.044428937434985778243135 1.092540453798691579834212
2.079233929830835325702765 0.01495719744278835305895115 1.078617005380258175861741
2.073994590005297844470533 -0.003244668890558541438778883 1.07276074110414332274388
2.072063793334729897566149 0.0006169244505773568152187658 1.07144686888415252568052
2.063421997776107907895948 0.007318636829064110657649955 1.075414649523973364964036
2.056710998888053865130132 0.02722997238628932503701208 1.080696302383784557221702
2.056710998888053865130132 -0.01259269872816110892588259 1.080696302383784557221702
1.584385689864032276119588 0.01369200547780752459658959 1.130793646208204883407689
1.59219284493201596042411 0.0314110286751732165066997 1.138165827212457958950154
1.59219284493201596042411 -0.004027017719558186395478749 1.138165827212457958950154
1.588488194415441867590744 -0.003655133964411791825527276 1.142143328379853883802753
1.581029104637940108091243 0.01396485612862931671718236 1.134286656759707634378742
1.588488194415441867590744 0.03158484622167041094842332 1.142143328379853883802753
1.583337268937051733885824 -0.01798776722956314799706234 1.132284912406352983538227
1.591804974286483709278173 -0.03438568986403235661075684 1.139265287161355333367396
1.582334428958514838114979 -0.01788873412523855205291667 1.133287752384889657264466
1.589451229038928214976067 -0.03428665675970776066661116 1.14175545773432141061221
1.582334428958514838114979 0.01788873412523857286959839 1.133287752384889657264466
1.589451229038928214976067 0.03428665675970777454439897 1.141755457734321632656815
1.583337268937051733885824 0.01798776722956317575263796 1.132284912406352983538227
1.591804974286483709278173 0.03438568986403237742743855 1.139265287161355555412001
1.575917984514600300727238 -0.0002687440321974397154994318 1.123813271453202311533914
1.575257434233151787594807 0.001052356530699059735528555 1.124205077702453259291815
1.574254594254615113868567 0.0009533234263744586956326743 1.125207917680989710973449
1.573912304557526731230155 -0.0002687440321974411791723647 1.125818951410275658986393
1.641636737597674811084403 -0.0001313926336014697440150029 1.116630899418857847393838
1.645818368798837472155583 0.02483867829740647042990886 1.120716905234227844800898
1.645818368798837472155583 -0.02510146356460941224897354 1.120716905234227844800898
1.634298421590282268667238 -0.02706620067207932828212691 1.125995017325940761310221
1.6436798197941513421938 -0.04163673759767459736647055 1.126977385879675441771042
1.621813386124778100239041 -0.03542946307440471981342611 1.136992722197015082130633
1.621813386124778100239041 0.03542946307440474063010782 1.136992722197015304175238
1.634298421590282268667238 0.02706620067207935256825557 1.125995017325940761310221
1.6436798197941513421938 0.04163673759767461818315226 1.126977385879675663815647
1.632255339393805515513236 -0.002096129741071383473238754 1.115648530865122722843807
1.627055572391099325102459 0.008303404264341292251305759 1.118752168126757817745442
1.614570536925595378718867 0.01369200547780752286186612 1.12974987299783236061046
1.607285268462797400701447 0.03245480188554557970936898 1.137643940607271808573842
1.607285268462797400701447 -0.005070790929930545261339336 1.137643940607271808573842
1.673223497476136190087459 -0.0417655145385993353812637 1.112339987789213724411752
1.662339987789213768820673 -0.04176551453859932150347589 1.120607624805746382889993
1.662339987789213768820673 0.0417655145385993353812637 1.120607624805746382889993
1.673223497476136190087459 0.0417655145385993353812637 1.112339987789213724411752
1.675884262104545330274163 -0.01999849516475427080308691 1.104117242730700221287066
1.669117995148323041476601 0.005100352707178399877530062 1.108234485461400575800894
1.675884262104545330274163 0.03019920057911106361925313 1.104117242730700221287066
1.658234485461400620209815 -0.0001313926336014697440150029 1.116502122477933234279135
1.654117242730700265695987 0.02496745523833119456691421 1.120652516763765538243547
1.654117242730700709785197 -0.02523024050553413638597888 1.120652516763765316198942
2.096414545116667582647096 -0.009329480834701166930278404 1.107254047799315133104869
2.098207272558333613687864 0.02041839761529973262810245 1.109129913273631640180383
2.098207272558333613687864 -0.03907735928470195546635679 1.109129913273631640180383
2.094249344602781892632493 -0.04641454511666757293264496 1.105461320357648880019497
2.094249344602781892632493 0.04641454511666745497144859 1.105461320357648880019497
2.092456617161115861591725 -0.01666666666666678092711962 1.103585454883332150899378
2.090291416647229727487911 0.005165355872230254982713227 1.101792727441665897814005
2.090291416647229727487911 0.03849868920556358958817711 1.101792727441665897814005
2.13538384560216298879709 0.01387136652374868633907923 1.129885170993044196663391
2.142691922801081449989624 0.03258854545924542989165928 1.137846110389333809109758
2.142691922801081449989624 -0.004845812411748048539883449 1.137846110389333587065153
2.116762255315485230511285 -0.03140263380840043611064161 1.114711743046655323396976
2.131438316085270567867838 -0.03538384560216340651850331 1.127990153744981682848447
2.107403665847736640159837 -0.04601878820623703236769586 1.111072258763719844409934
2.107403665847737528338257 0.04601878820623690746760559 1.111072258763720066454539
2.116762255315485674600495 0.03140263380840031121055134 1.114711743046655545441581
2.131438316085270123778628 0.03538384560216341345739721 1.127990153744981682848447
2.120707784832378095529748 -0.01268545487290369949695545 1.116606760294718059256525
2.11333980126151121936573 0.002050512268829948747672631 1.111289288992681090206815
2.103981211793762629014282 -0.009329480834701173869172308 1.107649804709745611219773
2.101990605896881803005272 0.02002264070486918512425945 1.10932779172884710128244
2.101990605896881358916062 -0.0386816023742714149014077 1.109327791728846879237835
2.160593057431024366366046 -0.03523192141586681258580427 1.145824978846891051276202
2.161559060445175539655338 -0.01024863038875148228690204 1.141649957693781969325642
2.160593057431024366366046 0.01473466063836384801200019 1.145824978846891051276202
2.157384039292066457704777 -0.04164995769378199846899591 1.144427328775432073371121
2.157384039292066901793987 0.04164995769378200540788981 1.144427328775432073371121
2.154175021153108993132719 0.03885465755086402184215189 1.143029678703972873421435
2.158350042306218075083279 0.01387136652374869327797313 1.14025230762232299142056
2.154175021153108993132719 -0.01111192450336663875565257 1.143029678703972873421435
1.59219823080101741119563 0.006664054988854262347175439 1.164465824187836950898145
1.584396461602035177662628 -0.01666666666666666990481716 1.170530258295444880900504
1.59219823080101741119563 -0.0266692783444790644520328 1.164465824187836950898145
1.575985985786952703335828 -0.0001542849634987028886734528 1.176140270750451355397104
1.57537727917085246254203 0.001063128268701658352482498 1.175685849097849899891344
1.582273189743973240695141 -0.01821139984475287146303835 1.166957428346325320589472
1.590847325531998812664369 -0.03439646160203500141472333 1.161665360827760506978734
1.575213619197909586944206 -0.001699018141584902278490299 1.175367904161408461050087
1.575213619197909586944206 0.001699018141584869752425124 1.175367904161408239005482
1.582273189743973462739746 0.01821139984475285064635663 1.166957428346325542634077
1.590847325531998812664369 0.03439646160203499447582942 1.161665360827760729023339
1.588724053673936875696882 -0.00318341544742188837027741 1.158092530878640946667701
1.581500823154930346348124 0.0139648561286292924310537 1.166185061757282426242455
1.588724053673936875696882 0.03111312770468048841121522 1.158092530878641390756911
1.574441252608866470552584 0.0001542849634986701728728981 1.174595537572365344658465
1.574604912581809346150408 -0.0004816049093845411457545658 1.174913482508807005544327
1.63377261624194880518246 -0.009838148889630389873350857 1.193610765131578821396374
1.626470160423606259314511 0.01071671470686061562738178 1.187221530263157465157065
1.633772616241948583137855 0.031271578303351615923944 1.193610765131578821396374
1.620080925555184681030596 -0.03722153026315766499720894 1.179744561824988213771803
1.620080925555184681030596 0.03722153026315767193610284 1.179744561824988435816408
1.606389234868421000967942 0.009489123649976933735916695 1.165878358518398050236442
1.612778469736842135162647 -0.01106573994651406829536899 1.173355326956567079577098
1.606389234868421000967942 -0.03162060354300506859193121 1.165878358518397828191837
2.188140508067478506859516 0.007756638374945696613738111 1.17407114445332805274802
2.19407025403373889815839 0.02923047977575720171583562 1.180353051007873466105025
2.19407025403373889815839 -0.01371720302586576858971945 1.180353051007873466105025
2.180612605506029755275677 -0.03814050806747817240482945 1.168141398487067217359936
2.180612605506029755275677 0.03814050806747813077146603 1.168141398487067217359936
2.174682859539768919887592 -0.01666666666666670806873363 1.161859491932521804002931
2.167154956978321056482173 -0.02210812232127335602571705 1.155929745966260968614847
2.167154956978321056482173 0.01122521101205997857974683 1.155929745966260968614847
2.229786636398669585901189 0.008506756458192585301780753 1.178720120059522535882479
2.23377338554297910633295 -0.0005332581695739757338819986 1.183240127373405892186042
2.235818234893815148467411 0.004622956871245057983155213 1.191840089791526224871632
2.23387633510034167017011 -0.02055046625361422324429483 1.195920044895763201253658
2.2338763351003412260809 0.02979637999610455084686933 1.195920044895762979209053
2.228044526097729516322943 -0.01199097706007339406153456 1.17751126792815608013143
2.219444563679609849771168 -0.0281243855571662905445951 1.181656216200416054107336
2.223231523331385517394665 -0.04184008979152615409491389 1.19146503074990306458858
2.219444563679609405681958 0.02812438555716603727496761 1.181656216200415832062731
2.223231523331385517394665 0.04184008979152595286699068 1.19146503074990262049937
2.228044526097729516322943 0.01199097706007310262799059 1.17751126792815608013143
2.224057776953419995891181 -0.002950962432306834110073979 1.172991260614272945872472
2.222315666652479926312935 0.0005332581695736837582369483 1.171782408482906490121422
2.213715704234359815671951 0.007756638374945686205397255 1.175927356755166242052724
2.206857852117179774609212 0.02737426747391915118901018 1.181281157158792449735074
2.206857852117179774609212 -0.01186099072402773020595834 1.181281157158792449735074
1.635959666685180113887554 -0.01296292178816437282162788 1.215892205754071309087294
1.642979833342590234579461 0.006330078230348848769559744 1.210723911535912300507789
1.642979833342590234579461 -0.03225592180667764818924326 1.210723911535912522552394
1.640004857362687085142738 -0.03595966668517987935294045 1.208872039096661410439992
1.640004857362687307187343 0.03595966668517994874187949 1.208872039096660966350782
1.632984690705276964450832 -0.01666666666666660051587812 1.214040333314820196974892
1.637029881382784157750621 -0.00332361860795943537053021 1.207020166657410076282986
1.637029881382784157750621 0.03000971472537389272972064 1.207020166657410076282986
1.688236973274453323057287 -0.004651007541759842253692447 1.242887980816213211454624
1.679786515412907021982392 0.0144582874239998944443375 1.235775961632426422909248
1.688236973274453323057287 0.03356758238975963287709092 1.242887980816213211454624
1.672674496229120011392411 -0.03577596163242639792922972 1.228073186588797494067649
1.672674496229120233437015 0.03577596163242639792922972 1.228073186588797494067649
1.657112019183786921772139 0.006146373177595301426356933 1.213258392361382220769883
1.66422403836757348827291 -0.01296292178816443874111997 1.220961167405010927566877
1.657112019183786921772139 -0.03207221675392416676553253 1.213258392361382220769883
2.244489260403963459822307 -0.005343751102025462614009133 1.211172197378356907293551
2.247244630201981507866549 0.02247884263527184095510236 1.214078285362659714863298
2.247244630201981951955759 -0.03316634483932260485383736 1.214078285362659492818693
2.241222775304271497276432 -0.04448926040396396219822606 1.208416827580338859249309
2.241222775304271053187222 0.04448926040396381648145407 1.208416827580339081293914
2.23846740550625300514298 -0.01666666666666682256048304 1.205510739596036273724167
2.235200920406560154418685 -0.0008877827247909160241629012 1.202755369798018225679925
2.235200920406560154418685 0.03244555060854240752243882 1.202755369798018225679925
2.284890423940265868907318 0.01515910050062274118387595 1.231022459643378974547545
2.292445211970132845635817 0.03338285777422184130713845 1.239380555197156397184699
2.292445211970132845635817 -0.003064656772976377153983041 1.239380555197156397184699
2.271643254706691372746263 -0.02866019244172052574115561 1.220086164099759118428778
2.285194805624085390149958 -0.03489042394026576482390922 1.232883931934131149787959
2.26253137606989174201999 -0.0437697685014547532844631 1.218192833852212775269663
2.26253137606989174201999 0.0437697685014545867510094 1.218192833852212997314268
2.271643254706691372746263 0.02866019244172037308548973 1.220086164099759340473383
2.285194805624085834239168 0.03489042394026578564059093 1.232883931934131149787959
2.271338873022871851503623 -0.01043643516812140827065836 1.21822469180900716523297
2.265342110135344810828428 0.001557090606932277996460323 1.213785019528412778555548
2.256230231498545180102155 -0.00534375110202547649179694 1.211891689280866213351828
2.253115115749272590051078 0.02175935073276261816355159 1.214438031313914478914739
2.253115115749272590051078 -0.0324468529368133890011805 1.21443803131391403482553
2.305453806038232578146108 -0.04261952076697359675927501 1.248073326805206217926525
2.305616912811307095410029 -0.01313953382322796160919243 1.24614665361041243585305
2.305453806038232578146108 0.016340453120517756807617 1.24807332680520599588192
2.303690239616513313336554 -0.04614665361041238311745616 1.247319543722184231882011
2.303690239616513313336554 0.04614665361041229291183541 1.247319543722184009837406
2.301926673194794048527001 0.04463908744436835551727683 1.246565760639162245837497
2.303853346389587386511266 0.01515910050062263883519087 1.245392870527390449808536
2.301926673194794048527001 -0.01432088644312299458016824 1.246565760639162245837497
1.696023564681644835161478 -0.0154059439569160065708342 1.254606796673230384442377
1.698011782340822506398581 0.0139509540580620254590638 1.25324894036892797721805
1.698011782340822506398581 -0.04476284197189404207017915 1.25324894036892797721805
1.696907592719489210608685 -0.04602356468164470193471516 1.252618579014052935249879
1.696907592719489210608685 0.04602356468164470193471516 1.252618579014052935249879
1.694919375060311539371583 -0.01666666666666666990481716 1.253976435318355342474206
1.695803403098155692774185 0.01048185210564459186877162 1.251988217659177671237103
1.695803403098155692774185 0.04381518543897792994368245 1.251988217659177671237103
1.747710596284769213326626 0.03669226319642707179191632 1.2889816669116571645759
1.745421192569539314831673 -0.01666666666666677398822571 1.291056727882983423683072
1.747710596284769213326626 0.003358929863093741089580258 1.288981666911657386620504
1.736401815571230855539397 -0.001372087329950574807746477 1.287773902901181433122701
1.729671842288152294742076 0.01208785923620616861717814 1.282416016948053627544368
1.739982905808090452026704 -0.04542119256953960904077405 1.285618441121534338833499
1.722024552619794590668789 -0.03012661323282341332974177 1.274027001304620210220264
1.723316239141424066616537 -0.04542119256953961597966796 1.273946600496298930949024
1.730963528809781326600614 0.03012661323282330230743931 1.282335616139732348273128
1.716586265858345505819216 0.03470542066328380359507833 1.268588714543171125370691
1.739982905808090229982099 0.04542119256953950495736549 1.285618441121534116788894
1.707647289668358325798181 0.002632810039701125818384364 1.260280099708058987317827
1.715294579336716029871468 -0.01540594395691601004028115 1.268669115351492182597326
1.707647289668358325798181 -0.03344469795353314373054232 1.260280099708058987317827
1.761186630837937139304472 -0.03666367720957786763280595 1.297850308047514999998384
1.758817853347695470134227 -0.007629727781214301791934407 1.295700616095030177632452
1.761186630837937139304472 0.02140422164714936986706917 1.297850308047514999998384
1.7566681613952108698129 -0.04570061609503033028811814 1.293485843360958842396258
1.7566681613952108698129 0.04570061609503023314360348 1.293485843360958842396258
1.752149691952484378276722 0.0369716867219177930392604 1.289121378674402684794131
1.754299383904969200642654 0.007937737293554132655959421 1.291336151408474020030326
1.752149691952484378276722 -0.02109621213480943405227386 1.289121378674402684794131
2.337145255127275333961734 0.009706716640465858081388006 1.276041436526291095177044
2.343572627563637489345183 0.0301853051010742695625666 1.28280075574349483602532
2.343572627563637489345183 -0.01077187182014256033868449 1.28280075574349483602532
2.328669527318690146699964 -0.03714525512727507444710184 1.26961406408992871774899
2.328669527318690146699964 0.03714525512727508138599575 1.26961406408992871774899
2.322242154882327547227305 -0.01666666666666665602702935 1.262854744872724754856108
2.313766427073743248143955 -0.02599427869595279105841001 1.256427372436362377428054
2.313766427073743248143955 0.007339054637380543547053868 1.256427372436362377428054
2.3783723433709216266152 0.005973167348006990125253157 1.277600823977085298110978
2.381166047196465740398708 -0.0003857596969183661739233315 1.280780287499547753782281
2.381369944921017722805345 0.0007935551460226605846592918 1.289306500681340450498169
2.378780138820025591428475 -0.02184627886865098123081452 1.294653250340670247453545
2.378780138820025591428475 0.02343338916069635097239043 1.294653250340670247453545
2.377194683417929610413921 -0.008328487253990143890369779 1.276808923721012067886704
2.368668470236137135742638 -0.02460939422373849272407398 1.281855161889704053379546
2.370050027913681134350554 -0.03930650068134035335365439 1.291173275327569758275104
2.368668470236137579831848 0.02460939422373845802960446 1.281855161889704053379546
2.370050027913681134350554 0.03930650068134031172029097 1.291173275327569758275104
2.377194683417929610413921 0.008328487253990123073688068 1.276808923721012067886704
2.374400979592385496630413 -0.001969560209064787591193291 1.273629460198549390170797
2.373223319639393480429135 0.0003857596969183462246033578 1.272837559942475937901918
2.364697106457601449847061 0.009706716640465861550834958 1.277883798111168145439365
2.357348553228800547287847 0.02834294351619733379199495 1.283721936535933361156481