# geometry NO_DATA 900
#  x  y  z
1.798909475846356187389574 0.04343406368493751834591876 0.8945245878385812421385026
1.797818951692712108325622 -0.01666666666666666296592325 0.8956265076888247911313101
1.798909475846356187389574 0.01010073035160417159739055 0.8945245878385812421385026
1.795550491975606455241632 0.01212974723245509485469729 0.8978189516927121971434644
1.794372556412144437132383 -0.0190225377935905187731791 0.8989094758463560541628112
1.794372556412144437132383 0.04328203225850070501312672 0.8989094758463560541628112
1.796731032602274069631676 -0.04781895169271227485907616 0.8945385885983867524373636
1.79446257288516819450308 -0.04781895169271228179797006 0.896731032602273936404913
1.79446257288516819450308 0.04781895169271228179797006 0.896731032602273936404913
1.796731032602274069631676 0.04781895169271228179797006 0.8945385885983865303927587
1.842495731962514371460315 0.004760477450903646823299198 0.8622647454883894946320311
1.834991463925028210013579 -0.01666666666666665602702935 0.8698759706879659603373511
1.842495731962514371460315 -0.02857285588242968257799426 0.8622647454883894946320311
1.81944225528586223106231 -0.01443175061166510411703179 0.8838740058975274038743919
1.811397314684182191513173 0.001658130591695020084053169 0.8902608159075123817061126
1.827520526801488909285354 -0.03499146392502834601589967 0.8624050335644266596091256
1.810279856656681340965065 -0.03275654787002678369756126 0.889185829931125937264369
1.810853860134822079785977 -0.03499146392502834601589967 0.8753280827976013256375154
1.811971318162322930334085 0.03275654787002679757534906 0.8764030687739881031461664
1.802808919533142040236839 0.04776508394499845433500695 0.8817148928075866365361435
1.827520526801488909285354 0.03499146392502835295479358 0.8624050335644264375645207
1.801117458027500450867819 0.04338019593722367700516784 0.8944976539647242486097412
1.802234916055001301415928 0.01228177865889190124859542 0.8955726399411109150960897
1.801117458027500450867819 -0.01881663861943987797742395 0.8944976539647242486097412
1.891926799350510890462829 0.001499251917314008879580922 0.8595724525668032578451516
1.883853598701021425654289 -0.01666666666666665602702935 0.8676764253091675538342997
1.891926799350510890462829 -0.03183408141601932334063818 0.8595724525668032578451516
1.874956910499615547749386 -0.001126709736145176761132336 0.8760836202357605850821187
1.874133422947698912608416 0.0005202653676880568747731282 0.8763868424199890982961847
1.875987084331233401002237 -0.03385359870102137153091704 0.8598099109393795291822471
1.866363444482438183058548 -0.01831364177049988467560482 0.869041327648187533760904
1.859320417664566793547465 -0.03385359870102136459202313 0.8608715910941709958947854
1.867090396129827301052728 0.01831364177049991590062739 0.8682171058659724494077636
1.858496930112650158406495 0.03446004306947853673692705 0.8611748132783993980865489
1.875987084331233401002237 0.03385359870102139234759875 0.8598099109393795291822471
1.857769978465261040412315 0.004229056595353828003347463 0.8619990350606144824396893
1.865539956930521769962183 -0.01356431980745802581833637 0.8693445498324161579972724
1.857769978465261040412315 -0.03135769621026988224210541 0.8619990350606144824396893
1.940095724198615201316898 -0.01612834068408301388397597 0.8601734387926767144705309
1.945047862099307467431686 0.007300716847865391240235411 0.8554904638832760976896452
1.945047862099307467431686 -0.03955739821603142247763429 0.8554904638832759866673427
1.918153039876955512355039 -0.02814047197110983514201088 0.8613906490116738368101323
1.92884208042986959874554 -0.04009572419861506809013463 0.8556821858892129650797642
1.906438511110981171015055 -0.03804474777249476635798686 0.8569280043857943063301263
1.906438511110981171015055 0.03804474777249476635798686 0.8569280043857943063301263
1.918153039876955512355039 0.02814047197110983861145783 0.8613906490116738368101323
1.92884208042986959874554 0.04009572419861507502902853 0.8556821858892128540574618
1.929406683645701114926396 -0.004711414439161424813629075 0.865881901915137586200899
1.923669780993479294650683 0.006762390865281743893011601 0.866907390128197730128079
1.911955252227505397399909 -0.01568768011704070597378546 0.862444745502318199648073
1.905977626113752876335639 0.005690400988787394816192933 0.8569566126633786362631895
1.905977626113752876335639 -0.03706576122286880242695517 0.8569566126633786362631895
1.991203274084777596897311 -0.01565348473940009199623091 0.8593033168788557496498015
1.995601637042388576404051 0.008883122678710764913434517 0.8554115448848778058277276
1.995601637042388576404051 -0.04019009215751095237534329 0.8554115448848778058277276
1.966803845642669301696515 -0.0330118841049033967527393 0.8589339048912247864819847
1.979374817319398349724224 -0.04120327408477752334503563 0.8553448008649209288734028
1.954535541933613673748482 -0.04180861002012586924436732 0.8548047049249053452868452
1.954535541933613673748482 0.04180861002012588312215513 0.8548047049249053452868452
1.966803845642668857607305 0.0330118841049034036916332 0.8589339048912247864819847
1.979374817319398793813434 0.04120327408477753028392954 0.8553448008649209288734028
1.978632302408048104780391 -0.008475276686792541577797344 0.8628924209051596072583834
1.970459693688929592170211 0.007869940751444193943742178 0.8625897529374855210448914
1.958191389979873964222179 -0.01612834068408301388397597 0.858460552971165857805147
1.954095694989937292973536 0.009013602669376195863915058 0.854634020972520613845802
1.954095694989936848884327 -0.04127028403754222363186699 0.854634020972520613845802
2.033364719463133241106334 -0.01107089597858456828105567 0.8694331658809081320171686
2.041682359731566531735325 0.005627156817881601331976515 0.8639134109565156371957073
2.041682359731566531735325 -0.02776894877505073355727916 0.8639134109565156371957073
2.018435619375518186302543 -0.01675094903015986527727854 0.8684042332457186930128046
2.026795400825698312274881 -0.0333647194631328317115937 0.8628952333732732293825052
2.010086592977285313565972 -0.03338622956702702593290155 0.8605931839409183270461767
2.010086592977285313565972 0.03338622956702703981068936 0.8605931839409183270461767
2.018435619375518186302543 0.01675094903015986874672549 0.8684042332457186930128046
2.026795400825698756364091 0.0333647194631328386504876 0.8628952333732732293825052
2.025004938012952671044786 -5.28962336936966196995237e-05 0.874942165753353595647468
2.024962796831206279790649 3.13861297995022154325509e-05 0.8749314107014064534340037
2.016613770432972962964868 -0.01565348473940009199623091 0.8671203613966060874673758
2.008306885216486481482434 0.001066078160960273139151733 0.8593200671437528637142123
2.008306885216486481482434 -0.03237304763976045496320921 0.8593200671437528637142123
2.08632627399322156946937 -0.006866408309727661980759184 0.893192682302949347850074
2.078374113542186485403818 0.0128522896295044791736828 0.8863853646058986734956875
2.08632627399322156946937 0.03257098756873661599131609 0.893192682302949347850074
2.071566795845135811049431 -0.03638536460589879978355654 0.8793239009803237582474367
2.071566795845135811049431 0.03638536460589880672245044 0.8793239009803236472251342
2.056807317697050496718703 0.008647801960647568536577623 0.8654551196576980576224969
2.063614635394100726983879 -0.01107089597858456828105567 0.8725165832832729728707477
2.056807317697050496718703 -0.030789593917816701629242 0.8654551196576980576224969
1.694804714702201398068837 0.01882771723494927607056582 0.9240230025327476059970877
1.689609429404402840546595 -0.01666666666666666296592325 0.929218573319675833488418
1.694804714702201398068837 -0.01450561609838406373906849 0.9240230025327476059970877
1.67804784458019584647559 -0.006456502981746885423686155 0.9396094294044026185019902
1.671681545053787854016036 -0.02939926571948311279092181 0.9448047147022011760242322
1.671681545053787854016036 0.01648625975598934367827297 0.9448047147022011760242322
1.684427431058869162328051 -0.03960942940440288773107369 0.9240365749741423773144788
1.672865846234662612346256 -0.0396094294044029016088615 0.9344274310588691623280511
1.672865846234662612346256 0.0396094294044029016088615 0.9344274310588691623280511
1.684427431058869162328051 0.0396094294044029016088615 0.9240365749741422662921764
1.742298859871602489945985 0.003723292149752899325015898 0.9114244322781503981900642
1.734597719743204757847366 -0.01666666666666668378260496 0.9191605059464788007872471
1.742298859871602489945985 -0.02961004118358043571412885 0.9114244322781503981900642
1.723148108094914920940255 -0.006232556629912442726360045 0.9293806647248274988015737
1.719399636575023038176369 0.001264386409871572167912257 0.9318647498348481272856247
1.726909575518213557643321 -0.03459771974320492021748308 0.9114723617214874895609
1.714182581556646045584102 -0.02416360970645068523277033 0.9266909487684984458866211
1.710242908851547172233154 -0.03459771974320492021748308 0.9165187194334867282208279
1.715459963869923942780815 0.02416360970645067135498252 0.9216925204998364096198316
1.706494437331655067424663 0.03956588996324576779084481 0.9190028045435072456825765
1.726909575518213557643321 0.03459771974320491327858917 0.9114723617214874895609
1.70521705501837717022795 0.01878417779379214225254913 0.9240012328121691709270635
1.710434110036754162820216 -0.004115045502786959102925479 0.9291750338785187413037647
1.70521705501837717022795 -0.02701426879936605351950618 0.9240012328121691709270635
1.78935032353320733200519 0.0004537237135349656566921106 0.9111034001803273163488939
1.782515454551754752188231 -0.01412346167644009178876452 0.9183919928753148109734639
1.774910862056635396655224 -0.001085723313798880569971961 0.9259965853704341665064703
1.774141138542968620939178 0.0004537237135349490683988716 0.9263125851705661384372092
1.774471821431898854726228 -0.03124385205664172160400227 0.910348359755459135556066
1.780309833191358936943516 -0.04745679500977341425116407 0.90178816456535815238027
1.766350666866534524501731 -0.01820611369400050930100754 0.9186658430502741001788536
1.759076757260345624800379 -0.03378705704686830318950186 0.9103062101302864528307168
1.766867228936779499193221 0.01820611369400048848432583 0.9179529522505784910890725
1.758307033746678849084333 0.03441905664713219847872239 0.9106222099304184247614558
1.788353466311214834405519 0.03124385205664171466510837 0.9098317976852140498422727
1.773474964209906801215766 0.03378705704686829625060795 0.9090767572603457580271424
1.795188335292667414222478 -0.01666666666666666296592325 0.9025432049902264441954003
1.794191478070674694578202 0.009586542242228511534474222 0.9012716024951130666664767
1.794191478070674694578202 0.04291987557556185134410853 0.9012716024951130666664767
1.757790471676433874392842 0.003544629053680187994596062 0.9113351007301139228289344
1.765580943352867748785684 -0.01420776092678535142133089 0.9189818428504060721095925
1.757790471676433874392842 -0.03196015090725087826051265 0.9113351007301139228289344
2.094696978488179262001267 -0.01499552998661634120591835 0.9061385898518455883632328
2.09734848924408945336495 0.01303478183489647536374978 0.9043226474359604694086556
2.09734848924408945336495 -0.0430258418081291629797569 0.9043226474359605804309581
2.095441300725508604330116 -0.04469697848817949514810266 0.9034870790959353969995504
2.095441300725508160240906 0.04469697848817949514810266 0.9034870790959353969995504
2.092789789969597968877224 -0.01666666666666666990481716 0.9053030215118204049318251
2.093534112206927311206073 0.007549268117683952464269659 0.9026515107559102135681428
2.093534112206927311206073 0.0408826014510172974780744 0.9026515107559102135681428
2.148899313776166941636347 0.04363829029882092258585402 0.9447389765226535951470055
2.147798627552334416179747 -0.01666666666666665602702935 0.9457184589255774875837801
2.148899313776166941636347 0.01030495696548759318456057 0.9447389765226535951470055
2.138627384106343232161862 -0.001675820225314738178348795 0.9403032043316583710179657
2.130556826884185461778998 0.01446529421900116102461809 0.9339084673348151399707717
2.144836690962640624036339 -0.04779862755233448001757068 0.9427565223358835844180703
2.12306140366351003834211 -0.03280778111098256455413491 0.9255727922288496944958069
2.128170024295973572492358 -0.04779862755233449389535849 0.9290055926359990223772911
2.135665447516649440018455 0.03280778111098257149302881 0.9373412677419643568299534
2.120099467073815802109493 0.03500915355864808731212179 0.9226108556391556803077947
2.14483669096264017994713 0.0477986275523345008342524 0.9427565223358835844180703
2.107495423220675512254729 0.00334695690536507490034368 0.9108423801260410179736482
2.114990846441351823870036 -0.01499552998661633947119487 0.9191780552320065744709154
2.107495423220675512254729 -0.03333801687859775514377603 0.9108423801260410179736482
2.155349857912770339396502 -0.04363165858504434307940656 0.9489815164978147032925904
2.154202654209662615159004 -0.01233529225608117133039521 0.9479630329956296730387066
2.155349857912770339396502 0.01896107407288199694916919 0.9489815164978147032925904
2.153184170707477917972028 -0.04796303299562983124548765 0.9469013478710579523323077
2.153184170707477917972028 0.04796303299562985206216936 0.9469013478710579523323077
2.151018483502185052458344 0.04380269574211627381377099 0.9448211792443013123943274
2.152036967004369749645321 0.01250632941315310726893006 0.9458828643688730331007264
2.151018483502185052458344 -0.01879003691581006621480476 0.9448211792443013123943274
1.549427406149354258246831 0.04656675883331019144550922 0.9971393526839553711482722
1.548854812298709138218555 -0.0166666666666666594964763 0.9977107855660097834871181
1.549427406149354258246831 0.01323342549997685857476881 0.9971393526839553711482722
1.547634981223103611824854 0.01422700451545589467317043 0.9988548122987094268765418
1.546987743998143871593243 -0.0179611411165869414019447 0.9994274061493546579271197
1.546987743998143649548638 0.04641515014749873074828557 0.9994274061493546579271197
1.548280292592875806434449 -0.04885481229870948516325058 0.9971362658601764517030119
1.547060461517270724129958 -0.04885481229870948516325058 0.9982802925928760950924357
1.547060461517270724129958 0.04885481229870950597993229 0.9982802925928760950924357
1.548280292592875806434449 0.04885481229870950597993229 0.9971362658601764517030119
1.592579540723553677139535 0.005425097343374465398702089 0.962845556619820741595106
1.585159081447107265461227 -0.01666666666666666990481716 0.9702920893952408087912431
1.592579540723553677139535 -0.02790823598995887180884701 0.962845556619820741595106
1.569072436443217144486084 -0.01550662334111307591455464 0.9845790597843304681191512
1.560406250715773435189249 0.001825748113773948246366108 0.9914194973979999492286197
1.577763045399237507027124 -0.03515908144710727656345739 0.9628960533473709393348372
1.559826229052996726665015 -0.03399903812155367910374792 0.99085549232807701436343
1.561096378732570677527747 -0.03515908144710727656345739 0.9766190186665376637975555
1.561676400395347386051981 0.03399903812155369298153573 0.9771830237364605986627453
1.552430193005126968230911 0.0488399566744464191936359 0.9834594562802072559293265
1.577763045399237507027124 0.03515908144710727656345739 0.9628960533473709393348372
1.55058002166277653088855 0.04655190320904710465921283 0.9971319248718240046969186
1.551160043325553239412784 0.01437861320126735710511756 0.9976959299417467175175034
1.55058002166277653088855 -0.01779467680651238697953076 0.9971319248718240046969186
1.641974639886119469167625 0.00165048621694751079108654 0.9596758463308284747839139
1.633949279772238583063881 -0.01666666666666668031315801 0.967799882994592408635981
1.641974639886119469167625 -0.03168284711638582468173908 0.9596758463308283637616114
1.624791999401405506731066 -0.001647894074999093749073209 0.9764398934764036974698342
1.623660079144453760591205 0.0006159464389044706300949117 0.9769558672944509414293179
1.625984936125442370524752 -0.03394927977223782811222463 0.9598355393477967512083637
1.616150692848619785380038 -0.01893050718057024545126765 0.9695982615384185487883428
1.60931826945877576306998 -0.03394927977223782811222463 0.9611179440735755363789394
1.616827655754609738281147 0.01893050718057022463458594 0.968475549829608040042217
1.608186349201824016930118 0.03498122740833241317570668 0.9616339178916228913607256
1.625984936125442370524752 0.03394927977223782117333073 0.9598355393477968622306662
1.607509386295834064029009 0.00524724330459959160261052 0.9627566296004334001068514
1.615018772591668039240176 -0.01306731743706615947453464 0.9701142353564657927478265
1.607509386295834064029009 -0.03138187817873189927597721 0.962756629600433289084549
1.675455249830631654361923 1.981674680017119031258735e-05 0.9745645669161683288805875
1.675242487475416375275472 -0.0004453414572315525098329669 0.9747971460181841241166012
1.67500325382080372804694 -3.312585199366204153151316e-05 0.9750363796727967713451335
1.674976782521406803994068 1.981674680017173241367359e-05 0.9750430342253936233376521
1.667212351610968479320718 -0.01713182487069839568527563 0.966767010153736450206452
1.663974191746694808458074 -0.03377867479056489291577847 0.9584237684470031659600409
1.666660012114070221755924 -0.016719609265460504132772 0.9672104078550849415307766
1.658656347549019471898646 -0.03335315008013351595339557 0.9591736174380405266504113
1.666973117956355832092186 0.016719609265460504132772 0.9670062438083492084572867
1.658629876249622547845775 0.03336645918532699789382789 0.9591802719906372676206274
1.672004327611142482368223 0.01713182487069839221582868 0.9664539043114508398701901
1.663761429391479085282413 0.03335315008013350901450167 0.9586563475490189611960545
1.672217089966358205543884 -0.01666666666666666990481716 0.9662213252094350446341764
1.668766167746869033550183 -0.02267782819118200482444436 0.9581106626047174446014765
1.668766167746869033550183 0.01065550514215132978101952 0.9581106626047174446014765
1.658316770407336715464908 0.001067665630036689463147614 0.9593844360373731117164198
1.666633540814673297703052 -0.0156321268886236396100653 0.9672170624076816825009928
1.658316770407336715464908 -0.03233191940728397106852299 0.9593844360373730006941173
2.193509200141816606333123 0.01250393042948202450281858 0.96899473028766491822239
2.187018400283633479119771 -0.0166666666666666664353702 0.974761165356557768291168
2.193509200141816606333123 -0.02082940290385131357209225 0.96899473028766491822239
2.178343328787006871749554 -0.00068347632658592900878336 0.9790268051135933013995327
2.176159057148563391592688 0.003685066950300611935548156 0.9775260098017359844391194
2.163667760936746731204039 -0.03436598643769263328184849 0.961502073731454132143881
2.179008220680442420302825 -0.03701840028363394263788422 0.9645852985480740660051424
2.16949366890149386577491 -0.01838279609761189758998512 0.9701771452280804064471909
2.16949366890149430986412 0.01838279609761191146777293 0.9701771452280804064471909
2.163667760936746731204039 0.03436598643769264022074239 0.961502073731454132143881
2.179008220680442420302825 0.03701840028363394263788422 0.9645852985480740660051424
2.155657581333555672387092 -0.04301621174347320525344074 0.9513262069229704298578554
2.154818101051233725229395 -0.01233529225608117653456564 0.9526524138459411261692367
2.155657581333555672387092 0.01834562723131085565375642 0.9513262069229704298578554
2.160644009015981303889475 0.0006834763265859411518476918 0.9613274853425674004725465
2.167309397263050829707254 -0.01401425282072535707933447 0.9686763499162230894867776
2.232370329177678858201261 -0.01160347894188148987204556 0.9939738081195601537842776
2.225224452409498177019032 0.00967747063057269527042159 0.9879476162391207516577651
2.232370329177678858201261 0.03095842020302687694344179 0.9939738081195601537842776
2.219198260529058774892519 -0.03794761623912084463894345 0.9817165731924842875244508
2.219198260529059218981729 0.03794761623912085851673126 0.9817165731924842875244508
2.206026191880439579762196 0.0134331463849689351774952 0.9694593382654083102423215
2.212052383760878981888709 -0.007847803187485244760801528 0.9756903813120447743756358
2.206026191880439135672987 -0.02912875275993943163799216 0.9694593382654083102423215
1.492848887604826035868655 0.007081078195166052788311895 1.014232190590339977021017
1.485697775209652293781915 -0.01666666666666665602702935 1.021389426702409064517951
1.492848887604826035868655 -0.02625225513816728528659894 1.014232190590339977021017
1.470900850038357354776508 -0.01292718367592310055314009 1.035697775209651894101626
1.463255037262236379902447 -0.03195829221890854332510656 1.042848887604825636188366
1.463255037262236157857842 0.006103924867062325738953366 1.042848887604825858232971
1.478393491689655947496362 -0.03569777520965210226844277 1.014085143182413162321609
1.463596566518361230535561 -0.03569777520965208839065497 1.028393491689655769860678
1.463596566518361230535561 0.03569777520965210920733668 1.028393491689655991905283
1.478393491689655947496362 0.03569777520965211614623058 1.014085143182412940277004
1.540538648333670268542051 0.0005128695374029797540704756 1.009974221203731925555758
1.53315397631988714621798 -0.01528221356496923047374459 1.017871762754918307791741
1.524465988789116988044725 -0.002093761496570969212610569 1.026559750285688021875785
1.523162673272129952195542 0.0005128695374029762846235236 1.027350196265272019857662
1.525149909548816795634707 -0.03246174976903887232637658 1.009867695983847735163863
1.532006977037843498123948 -0.04861554689830256681393195 1.001277927881813134547428
1.515876220687082609472895 -0.0192732977006406132336469 1.020328300343076977085843
1.509175469432999072694201 -0.03384620287073630828800219 1.011533787592422628520694
1.516461922018046859506057 0.0192732977006406132336469 1.018555683514617671292513
1.507872153916011814800413 0.03542709482990430425175532 1.012324233572006626502571
1.540011043808913626662616 0.03246174976903887926527048 1.009281994652883263086096
1.524622305024060153755272 0.03384620287073630828800219 1.009175469432999072694201
1.547395715822696971031291 -0.0166666666666666594964763 1.001384453101697324939323
1.546868111297940107107252 0.01284255141375846218099177 1.000692226550848662469662
1.546868111297940107107252 0.04617588474709179158228523 1.000692226550848662469662
1.507286452585047786811856 0.006810397815418249567454012 1.014096850400465932295901
1.514572905170095573623712 -0.01195003034781939171837806 1.02111874632266097506772
1.507286452585047786811856 -0.03071045851105702953476317 1.014096850400465932295901
2.237032697196725372634774 -0.01378138889953704759872011 1.014409941686839289332056
2.243516348598362242228177 0.006584641630521412443421969 1.009368929168766637616272
2.243516348598362686317387 -0.03414741942959550330405349 1.009368929168766637616272
2.240021750580315718082147 -0.03703269719672511867125664 1.007926290285201975649443
2.240021750580315273992937 0.03703269719672512561015054 1.007926290285201753604838
2.233538099178677960310324 -0.01666666666666666296592325 1.012967302803274405320622
2.236527152562268305757698 -0.003289832172702185364432381 1.006483651401637091638008
2.236527152562268305757698 0.03004350116063114750630803 1.006483651401637091638008
2.290519988399383422006395 -0.00211414007405265336192457 1.042634128473436172512834
2.281308801489537074758118 0.01648745020615362266713788 1.035268256946872522661351
2.290519988399383422006395 0.03508904048635989869620033 1.042634128473436172512834
2.273942929962974091040451 -0.0352682569468729389949857 1.027410100690334227024891
2.273942929962973646951241 0.03526825694687294593387961 1.027410100690334227024891
2.257365871526563427806877 0.004820201380669232767151033 1.012186072907232281536949
2.264731743053126855613755 -0.01378138889953704412927316 1.020044229163770577173409
2.257365871526563427806877 -0.03238297917974332362778256 1.012186072907232281536949
1.442995994082584054751806 0.007005687884170834663077887 1.064009693801586831085615
1.435991988165167931867927 -0.01666666666666666990481716 1.071498838024668831536701
1.442995994082584054751806 -0.0263276454491624886666834 1.064009693801586831085615
1.422005252115026596726466 -0.0113068054336153238359497 1.085991988165167398960875
1.415022521982301828558093 -0.03063212693211614379151797 1.092995994082583521844754
1.415022521982301828558093 0.00801851606488550479323596 1.092995994082583521844754
1.428689824639598038302779 -0.03599198816516747945204457 1.064196674499099382060763
1.414703088589457147250528 -0.03599198816516749332983238 1.078689824639597727440332
1.414703088589457147250528 0.03599198816516747945204457 1.078689824639597727440332
1.428689824639598038302779 0.03599198816516747251315067 1.064196674499099604105368
1.475522622982783360612302 8.563748374495889202108467e-05 1.074563014500961477537544
1.475325539604200431043068 -0.0004798042409106537467544662 1.074845735363289200847703
1.474802436666248883767594 -0.0005664016349918872105656531 1.075368838301240526078573
1.474476417106880710150563 8.563748374495802465934668e-05 1.075609220376863905954679
1.467308434826994911759357 -0.01723210839132229693637655 1.066828630586083903608596
1.460802024247160879610874 -0.03381313757424395105566362 1.058452478510877980966143
1.46642628459104340521435 -0.01731870578540353061702817 1.069166202752203087555927
1.458735199373206725681484 -0.03341897081707832783958878 1.060908715899374410440714
1.466785331889044030617697 0.01731870578540348204477084 1.067351733524035450884071
1.458409179813838107975243 0.03389973496832516391963352 1.06114909797499779031682
1.468819129024366176849981 0.01723210839132225183356617 1.066469583288083500249854
1.460604940868578172086245 0.03341897081707830008401316 1.058735199373206148365512
1.469016212402948884374609 -0.01666666666666668378260496 1.066186862425755776939695
1.462312718444532366746103 -0.02911404610167916962026879 1.058093431212877577607401
1.462312718444532366746103 0.004219287231654158046301184 1.058093431212877799652006
1.458050132515837482571897 0.004913434687328526069560741 1.062963567203165649033281
1.466100265031674787508109 -0.01231963361433000003763993 1.069406584827826467432033
1.458050132515837482571897 -0.02955270191598850099135021 1.062963567203165426988676
2.299751666438752728538475 -0.01658209904236363982366065 1.050290617373398793787942
2.299875833219376275451395 0.01650290072972220023483914 1.050208734404926680383596
2.299875833219376275451395 -0.04966709881444947988216043 1.050208734404926458338991
2.299786224989119887140987 -0.04975166643875250649386999 1.050166450592775024830416
2.299786224989119887140987 0.04975166643875250649386999 1.050166450592775024830416
2.299662058208496340228066 -0.01666666666666666296592325 1.050248333561247138234762
2.299696616758863498830578 0.01623911664490613332434421 1.050124166780623591321842
2.299696616758863498830578 0.04957244997823945925619071 1.050124166780623591321842
2.344158368408370662905327 0.01621263628396116956986717 1.07205426787558999457417
2.338316736816741681082021 -0.0166666666666666664353702 1.077264686550350791804931
2.344158368408370662905327 -0.01712069704937216330087324 1.07205426787558999457417
2.32957413895649967372492 -0.0008185290538170509905963046 1.080392668010316414850536
2.326673172687887092280334 0.004983403483408166759205393 1.078310230795521018620775
2.327834592092219434533718 -0.03831673681674149789522232 1.066782541825828767301232
2.318749103881462492182663 -0.0224685992038918848356932 1.069609916747430444772249
2.311167925425552827078945 -0.03831673681674149789522232 1.061210209237703816498311
2.319091994231977427176616 0.02246859920389188136624625 1.069910523285794390346837
2.30826695915694024563436 0.03415186238715037930768759 1.05912777202290842026855
2.327834592092218990444508 0.03831673681674149789522232 1.066782541825828767301232
2.307924068806425310640407 0.0009030966781200753254812974 1.058827165484544696738567
2.315848137612849910738078 -0.01658209904236363982366065 1.067527479532635048542488
2.307924068806424866551197 -0.03406729476284735269597803 1.058827165484544696738567
2.378818918023608119938217 -0.01574650564274848035806187 1.094565423666356673848554
2.372561323512268671720449 0.006717675023298477071653778 1.089130847332713480923871
2.378818918023608119938217 0.02918185568934543797081638 1.094565423666356673848554
2.367126747178625478795766 -0.03913084733271363080397975 1.083513373399966228660674
2.367126747178625478795766 0.03913084733271362386508585 1.083513373399966228660674
2.355434576333643281742525 0.01702674679993329553973069 1.072461323133576005517398
2.360869152667286474667208 -0.005437433866113662757346692 1.078078797066323035735991
2.355434576333643281742525 -0.0279016145321606193197006 1.072461323133576005517398
1.428136433093635249136355 0.001330573803922464014293237 1.123194140710287003415147
1.42756614689975958043533 -0.002471146191674224688872297 1.125095000708085324347962
1.419422137898588731630412 -0.013816871810667544911988 1.134663907137255733914571
1.411848415091293773571124 -0.03181411228125667622901318 1.14233195356862804459297
1.411848415091293773571124 0.004180368659921583802951961 1.14233195356862804459297
1.420020381833769107515764 -0.02046838666226335340381226 1.117549235642094851428396
1.41370169221500052714191 -0.03580447952500756536586834 1.108550615406800332607418
1.411876372832598480755451 -0.03466390713725579775239538 1.12711814207126548303961
1.411876372832598480755451 0.03466390713725579775239538 1.12711814207126548303961
1.421247457280990555972267 0.02046838666226336034270616 1.116096380472790805526984
1.41313140602112463639628 0.03466390713725579775239538 1.110451475404598653540233
1.421817743474866668762502 -0.0166666666666666664353702 1.114195520474992484594168
1.414928767662221753553808 -0.02550232590860775777619196 1.1070977602374960646614
1.414928767662221753553808 0.007831007424725583768165826 1.1070977602374960646614