# geometry NO_DATA 388
#  x  y  z
4.184022788627022038099312 0.01525477598943150887855769 2.231937932701026028325941
4.192011394313510663778288 0.03261089794978726252860923 2.239910048342586890157691
4.192011394313510663778288 -0.002101345970924244771493861 2.239910048342586890157691
4.189045714546208110107273 -0.003135511179019616519181302 2.242181225725228266298927
4.18125101868526094506251 0.01456027360477049961695606 2.234362451450456532597855
4.189045714546208110107273 0.03225605838856061835517863 2.242181225725228266298927
4.183250995816484518741163 -0.01763624821549593033043202 2.232561540522796761365498
4.191724392277389910077545 -0.03402278862702241835069827 2.240328991645082368222575
4.182391709111079158844859 -0.01797591103893029368387957 2.233420827228203009440222
4.189811909041035065115466 -0.03436245145045678517359278 2.241894223689106624419765
4.182391709111078270666439 0.01797591103893029368387957 2.233420827228203009440222
4.189811909041035065115466 0.03436245145045678517359278 2.241894223689106180330555
4.183250995816485406919583 0.01763624821549593033043202 2.232561540522796761365498
4.191724392277389021899126 0.03402278862702241835069827 2.240328991645082368222575
4.175549392166118423119769 -0.0002801262551401784151039465 2.224170481578740421468865
4.175064601391703433819202 0.0006894552936890841789152606 2.224375146098014788265118
4.174205314686297185744479 0.001029118117123445363958467 2.225234432803421036339842
4.173830818755305926970323 -0.0002801262551401784151039465 2.225889054989552917618312
4.235808727100883075422644 0.01171587913156327612207441 2.228382545798229585898298
4.242904363550441537711322 0.03085793956578164465298642 2.235478182247787160008556
4.242904363550441537711322 -0.007426181302655100215093231 2.235478182247787160008556
4.233503878529042196987575 -0.01985349489292938598983262 2.23102848476149029366411
4.242192929091730846380415 -0.03580872710088503496628221 2.237242141556627927911904
4.223932848311933163643062 -0.03404476779204435032966103 2.239893569639982207064577
4.223932848311933163643062 0.03404476779204435726855493 2.239893569639982207064577
4.233503878529041308809155 0.01985349489292939639817348 2.23102848476149029366411
4.242192929091730846380415 0.03580872710088504884407001 2.237242141556627927911904
4.227119676538194426029804 -0.0007114344587110084600425908 2.222168889003091951650504
4.225526262425063350747223 0.002475393767551709034435703 2.223050868657511891512968
4.215955232207954317402709 0.01525477598943150887855769 2.231915953536003804913435
4.207977616103976359340777 0.03263287711480919450757199 2.239899058760075778451437
4.207977616103977247519197 -0.002123325135946177184137484 2.239899058760075778451437
4.290169440427466618359631 0.002994452478397809092047765 2.219661119145064365199005
4.295084720213733220361974 0.02649722623919890246435571 2.224576398931330523112138
4.295084720213733220361974 -0.02050832128240329121915408 2.224576398931330523112138
4.283038296229072727783205 -0.02597816752835279546784975 2.226202189134938169701172
4.292609326446180872949299 -0.0401694404274677632771251 2.228937112257913355506389
4.271286909348671834152356 -0.03580872710088503496628221 2.235478182247787160008556
4.271286909348671834152356 0.03580872710088504884407001 2.235478182247787160008556
4.283038296229072727783205 0.02597816752835280934563755 2.226202189134938169701172
4.292609326446180872949299 0.0401694404274677632771251 2.228937112257913355506389
4.280598410210357585015117 -0.002475393767551700794499192 2.216926196022089179393788
4.275942659779514265494527 0.006836107094134437345278599 2.219106552685380595590914
4.264191272899114260042097 0.01171587913156327438735094 2.228382545798229585898298
4.257095636449556685931839 0.03085793956578164465298642 2.235478182247787160008556
4.257095636449556685931839 -0.007426181302655100215093231 2.235478182247787160008556
4.335414084688151703517178 0.01250516395702777096288205 2.229171830623693839612542
4.342707042344075674122905 0.03125258197851388253241112 2.23646478827961736612906
4.342707042344075674122905 -0.006242254064458344076093965 2.23646478827961736612906
4.324119548369540488863549 -0.02558352511562054371063724 2.222038797014721289713179
4.335870935249941382494399 -0.0354140846881527832090697 2.231709432540302628922291
4.314745839358797852014504 -0.0401694404274677632771251 2.224576398931330523112138
4.314745839358797852014504 0.0401694404274677632771251 2.224576398931330523112138
4.324119548369540488863549 0.02558352511562054371063724 2.222038797014721289713179
4.335870935249941382494399 0.0354140846881527832090697 2.231709432540302628922291
4.323662697807751698064749 -0.006836107094134427804299481 2.219501195098112944492641
4.319204268583273886861207 0.00208075135481945033832929 2.217123517228455575889257
4.309830559572532138190581 0.002994452478397809092047765 2.219661119145064365199005
4.304915279786265536188239 0.02649722623919890246435571 2.224576398931330523112138
4.304915279786265536188239 -0.02050832128240329121915408 2.224576398931330523112138
4.384017767524397868328379 0.01529779828453700814272498 2.231964464951203819254033
4.392008883762198223621454 0.03264889914226849765288563 2.239955581189004618636318
4.392008883762198223621454 -0.002053302573194489173691313 2.239955581189004618636318
4.380554423396636032350671 -0.01943185221255094505266037 2.22986998920557155656752
4.389928132407378669199716 -0.03401776752439816808859518 2.238559264025249628815573
4.371878872967770668367393 -0.0354140846881527832090697 2.236464788279617810218269
4.371878872967770668367393 0.0354140846881527832090697 2.236464788279617810218269
4.380554423396636032350671 0.01943185221255094158321342 2.22986998920557155656752
4.389928132407378669199716 0.03401776752439815421080738 2.238559264025250072904782
4.374644058513654343300914 -0.002080751354819447736244076 2.223275190131525302916771
4.373261465740712061744944 0.0006844341910648310978865227 2.222577031549648030051003
4.364585915311846697761666 0.01250516395702777096288205 2.229171830623694283701752
4.357292957655923615334359 0.03125258197851388253241112 2.236464788279617810218269
4.357292957655923615334359 -0.006242254064458344076093965 2.236464788279617810218269
4.425972176384385114999986 0.001340448490794650089966145 2.22536827210640941743236
4.426491424560289544842817 -0.0003019521389873759957718502 2.226189472421300497018137
4.419347563648255317048097 -0.01398576968507736495439531 2.234673781824128013795416
4.411684454560320212124225 -0.03199288484253868386497643 2.242336890912064006897708
4.411684454560319323945805 0.00402134547238395829299451 2.242336890912064006897708
4.425478983219359285783412 -0.002326834820846858213616581 2.225177031080370682047942
4.416994673816532213095343 -0.01869154934852615412843591 2.232976906292132746045809
4.410344006069525590874036 -0.03467378182412799575429219 2.241652456720998998207506
4.416994673816531324916923 0.018691549348526147189542 2.232976906292132746045809
4.410344006069523814517197 0.03467378182412798187650438 2.241652456720998998207506
4.425478983219358397604992 0.002326834820846849539999202 2.225177031080371126137152
4.424959735043455744119001 -0.0006844341910648326157695642 2.224355830765480046551374
4.424466541878429026724007 0.0003019521389873668884736013 2.224164589739441311166956
4.415982232475601065857518 0.0152977982845370064080015 2.231964464951203375164823
4.407991116237799822386023 0.03264889914226849765288563 2.239955581189004618636318
4.407991116237800710564443 -0.00205330257319449047473392 2.239955581189004618636318
4.149265383916241667350278 0.04806332785184160016900279 2.298797943935598997455827
4.148530767832484755786027 -0.01666666666666666296592325 2.29829704784216382051909
4.149265383916241667350278 0.01472999451850827597187976 2.298797943935598997455827
4.148432265210518110620797 0.01646966142273297711851043 2.298530767832485999235814
4.149068378672308377019817 -0.01539443974308595669553412 2.299265383916242910800065
4.149068378672308377019817 0.04833376258855191093255499 2.299265383916243354889275
4.149209543639703845485656 -0.04853076783248559677996781 2.298975823649382910218719
4.149111041017737200320425 -0.04853076783248559677996781 2.299209543639705088935443
4.149111041017737200320425 0.04853076783248559677996781 2.299209543639705088935443
4.149209543639703845485656 0.04853076783248559677996781 2.298975823649382910218719
4.189021660836708349506807 -0.03439453953267385122316568 2.273408190700989095489604
4.173408190700989450760972 -0.03439453953267384428427178 2.289841137377333968316862
4.173408190700989450760972 0.03439453953267383734537788 2.289841137377333968316862
4.189021660836708349506807 0.03439453953267384428427178 2.273408190700989095489604
4.189029670505100000355014 -0.003167599261236685170839422 2.257802730233662735770395
4.181218930603044725557993 0.01456027360477049788223258 2.265605460467325915629999
4.189029670505100000355014 0.03228814647077768440475154 2.257802730233662735770395
4.165605460467325826812157 0.01619922668602266982440518 2.282038407143670788457257
4.157802730233662202863343 0.03392709955202984767330676 2.29066862358635248142491
4.157802730233662202863343 -0.001528646179984505422411178 2.29066862358635248142491
4.434673781824127303252681 0.01399812160219026518914731 2.280658612310300092929083
4.442336890912063296354972 0.03200523675965158409972844 2.28832789735679309472971
4.442336890912063296354972 -0.004008993555271055456157292 2.28832789735679309472971
4.427010672736191310150389 -0.03467378182412798881539828 2.272995503222364099826791
4.427010672736191310150389 0.03467378182412798881539828 2.272995503222364099826791
4.419347563648255317048097 -0.01666666666666666990481716 2.265326218175871986204584
4.411684454560319323945805 -0.02931198786094937891455459 2.257663109087935993102292
4.411684454560319323945805 0.00402134547238395829299451 2.257663109087935993102292
4.475605539812251620901407 0.0006263403047535337931500665 2.275020800492500772094218
4.475772525134691370851669 -0.0002923696598763305038760907 2.275480155474815635585628
4.467928584205300701626129 -0.01539551219890493601039072 2.283959673638086940172798
4.459917657953471170628745 -0.03268851917032514209360272 2.291979836819043825357767
4.459917657953472058807165 0.001897494772515266603374329 2.291979836819043825357767
4.47480149760434375849627 -0.002234424720569629617406004 2.274509127944468467319439
4.466321979441072897998311 -0.01860872172735996560311023 2.281654373575502159354755
4.459282080719590979356326 -0.03395967363808686384496482 2.290645564286805324627494
4.466321979441072897998311 0.01860872172735996560311023 2.281654373575501715265545
4.459282080719590091177906 0.03395967363808687078385873 2.290645564286805324627494
4.47480149760434464667469 0.002234424720569627882682529 2.274509127944468467319439
4.474634512281905784902847 -0.001315714755939765157749521 2.274049772962153603828028
4.473830470073997922497711 0.0002923696598763287149425061 2.273538100414122187231669
4.465350951910726173821331 0.01399812160219026518914731 2.280683346045155435177776
4.457675475955363175728507 0.03198050302479669981803312 2.288340264224220099720242
4.457675475955363175728507 -0.003984259820416165970291544 2.288340264224220543809452
4.13948731679501236158103 -0.002615219845983948049328305 2.342102536640997101358153
4.13158985343600981821055 0.014923186769344046545549 2.334205073281994557987673
4.13948731679501324975945 0.0324615933846720342015324 2.342102536640997101358153
4.140877155956366628686283 -0.03379400539222161825581026 2.324308991911667732210844
4.13220645527066920976722 -0.01799907867421628518411758 2.333078195219331352205927
4.139898384684785881404423 -0.03420507328199465929552403 2.341641864582108656378523
4.13220645527066920976722 0.01799907867421628865356453 2.333078195219331352205927
4.139898384684785881404423 0.03420507328199465929552403 2.341641864582108656378523
4.140877155956366628686283 0.03379400539222161825581026 2.324308991911667732210844
4.141239325393287984411472 -0.0006576773028219807734617852 2.308102997303889125646492
4.132774158652477325404107 0.01646966142273297711851043 2.316205994607777984839458
4.141239325393287984411472 0.03359700014828793240839744 2.308102997303889125646492
4.124103457966779906485044 0.0008717399486613307615923141 2.324975197915441604834541
4.123897924021893146573348 -0.0004606720588882910771312551 2.325641403919216365636657
4.47645536075424210764595 0.001633413815194509777911636 2.32517805306095226569596
4.476952740738516567375882 -0.0006386538466448496995445105 2.326314086891871468765203
4.469933494297055887045644 -0.01339983903627751417320102 2.334966747148527588251454
4.462416867871319858807055 -0.03169991951813869168752547 2.342483373574263616490043
4.462416867871319858807055 0.004900241445583666810570378 2.342483373574263616490043
4.469428731758029016418732 -0.01893873432850603014121482 2.318790077911383917808053
4.460914268750978628474968 -0.03397198717997818029346035 2.309640037670453338591869
4.462409485316568336088494 -0.03496674714852784915386508 2.327442738168039593205094
4.462409485316567447910074 0.03496674714852784915386508 2.327442738168039149115884
4.468438277731467067610538 0.01893873432850602667176787 2.317164046650941333638229
4.461411648735253976383319 0.03496674714852784915386508 2.310776071501372541661112
4.467940897747192607880606 -0.01666666666666666990481716 2.316028012820021686479777
4.459923814724417567845194 -0.03142352501892675675776445 2.308014006410010754422046
4.459923814724417567845194 0.0019098083144065782813803 2.308014006410010754422046
4.137306239895460535649363 -0.005232512125445893183539603 2.392538752020907821815854
4.129844991916368890372269 0.01317832524970273186393221 2.38507750404181528836034
4.137306239895460535649363 0.03158916262485136211557446 2.392538752020907821815854
4.13948731679501236158103 -0.03420507328199468011220574 2.373692390077007718929281
4.131153638056099808295585 -0.01928257732380997749310758 2.382897808764582237017748
4.138178670655282331836133 -0.03507750404181529668701245 2.391667012072246301102041
4.131153638056099808295585 0.01928257732380997055421368 2.382897808764582237017748
4.138178670655282331836133 0.03507750404181528974811854 2.391667012072246301102041
4.13948731679501236158103 0.03420507328199467317331184 2.373692390077007718929281
4.13948731679501236158103 -0.002615219845983968866010017 2.357897463359002632188322
4.13158985343600981821055 0.01492318676934404134137857 2.365794926718005175558801
4.13948731679501236158103 0.03246159338467205501821411 2.357897463359002632188322
4.123256174697097264925105 0.001744170708481958612101614 2.375000345405579249558059
4.12281995931718725501014 -0.0008717399486613528793166328 2.376308300734150780186837
4.478570669456396480256899 0.003874511282403974958554738 2.375303841826007289483869
4.479691218190000157051145 -0.001633413815194551411275059 2.378057804374806405434128
4.474415689231474146936307 -0.008917644101858624577916501 2.387207844615736984650312
4.468019611539343571848804 -0.02945882205092924949196842 2.393603922307868447916235
4.468019611539343571848804 0.01162353384721198298890066 2.393603922307868892005445
4.473295140497869581963641 -0.02217459176426517589164611 2.371661726682674942168205
4.464657965338528988752387 -0.03496674714852790466501631 2.361391137708139797979356
4.468019611539343571848804 -0.03720784461573727053274041 2.380811766923605965473598
4.468019611539343571848804 0.03720784461573729134942212 2.380811766923605965473598
4.47105404303065956383989 0.02217459176426520711666868 2.36778721540027126124528
4.465778514072134441903472 0.03720784461573728441052822 2.364145100256938913929616
4.469933494297055887045644 -0.01666666666666664561868849 2.36503325285147214529502
4.462416867871319858807055 -0.02843309188774958973233709 2.357516626425735672967221
4.462416867871318970628636 0.004900241445583743138403321 2.357516626425735672967221
4.136786695969963290053784 -0.005855964836044299723361028 2.442642660806007448570654
4.129429356775970560988753 0.01276269010930383175639324 2.435285321612015163594833
4.136786695969963290053784 0.03138134505465196150142404 2.442642660806007448570654
4.137306239895462312006202 -0.03507750404181529668701245 2.42238374393727706745949
4.129741083131269974160205 -0.02036282565383008835713241 2.431693071409951389938442
4.136994513540162898834751 -0.03528532161201478750678362 2.44089849009752590802691
4.129741083131269974160205 0.02036282565383009876547327 2.431693071409951389938442
4.136994513540162898834751 0.03528532161201480832346533 2.44089849009752590802691
4.137306239895462312006202 0.03507750404181529668701245 2.42238374393727706745949
4.137306239895461423827783 -0.005232512125445892316177865 2.407461247979092888726882
4.129844991916368890372269 0.01317832524970273533337917 2.414922495958185422182396
4.137306239895461423827783 0.03158916262485136211557446 2.407461247979092888726882
4.122279835152177440704691 0.001951988278681465478064938 2.424231823430859300572138
4.122175926367077636314207 -0.001744170708481957311059007 2.426079902924441089595575
4.480128765929897838304896 0.002508509294986307428670935 2.42237974336508887773789
4.479445764936189178229142 -0.003874511282403987968980807 2.425571253653784342674271
4.471683685256639506633292 -0.01164964807669391713695894 2.43584184262831948686312
4.464604606570799383291615 -0.03082482403834691658817135 2.442920921314160054294007
4.464604606570799383291615 0.007525527884959111804552556 2.442920921314160054294007
4.472366686250349054887465 -0.02304968724405698568546974 2.418492174967943775243384
4.466653609551926251697296 -0.03720784461573729828831603 2.408904586987117291130289
4.464604606570799383291615 -0.03584184262831970058105213 2.428762763942479807610653
4.464604606570800271470034 0.03584184262831966588658261 2.428762763942479807610653
4.473732688237766375038973 0.02304968724405693364376546 2.415983665672957858561176
4.465970608558217591621542 0.03584184262831966588658261 2.412096097275813200155881
4.474415689231475035114727 -0.01666666666666669419094582 2.412792155384262393624795
4.468019611539343571848804 -0.02170979948612137416796841 2.406396077692131374448081
4.468019611539343571848804 0.01162353384721196217221895 2.406396077692131374448081
4.139577298989114417793189 -0.002507241213061472007855857 2.492084540202177400658456
4.131661839191291818451646 0.01499517252462568769888485 2.484169080404353913138493
4.139577298989114417793189 0.03249758626231284697194468 2.492084540202176956569247
4.136786695969963290053784 -0.0352853216120147528123141 2.472072017581978364830775
4.129987477379800431265267 -0.01945440201636858268408048 2.480823224450821928854793
4.138461057781453789061743 -0.03416908040435382570843004 2.490132551923495363155325
4.129987477379800431265267 0.01945440201636858962297438 2.480823224450821928854793
4.138461057781453789061743 0.03416908040435383264732394 2.490132551923496251333745
4.136786695969963290053784 0.03528532161201476669010191 2.472072017581978364830775
4.136786695969963290053784 -0.005855964836044261559444557 2.457357339193992906700714
4.129429356775970560988753 0.01276269010930383175639324 2.464714678387985635765745
4.136786695969963290053784 0.03138134505465192680695452 2.457357339193992906700714
4.122630138185808590378656 0.0008357470710204985839611447 2.473465885256829199789763
4.123188258789639348833589 -0.00195198827868142167629717 2.474859752931680034748751
4.477952694785648724007388 0.0008883709813256443141304963 2.472935676195676002464552
4.477142625628818706218226 -0.002508509294986347760991752 2.474634116333831901357598
4.468443408629316770941386 -0.01488992470401536566404488 2.484221704314658385470693
4.460554260786645741632128 -0.03244496235200768075035427 2.492110852157328970690742
4.460554260786647517988968 0.002665112943976948554902773 2.492110852157328970690742
4.469253477786147676908968 -0.02006354694297866544938636 2.46674496849116176022676
4.462984468257138459534872 -0.03584184262831968670326432 2.457967449667166182081246
4.460554260786646629810548 -0.03422170431465898499112654 2.476332556471988244339855
4.460554260786647517988968 0.03422170431465898499112654 2.476332556471988244339855
4.47087361609980860066571 0.0200635469429786619799394 2.465856597509836323212085
4.462174399100307553567291 0.03422170431465898499112654 2.459665889805322080974292
4.471683685256638618454872 -0.01666666666666667337426411 2.464158157371679980229828
4.464604606570798495113195 -0.02580780544837421586201742 2.457079078685840300977361
4.464604606570798495113195 0.007525527884959123947616888 2.457079078685840300977361
4.14243069932129870380777 0.004584195927794317178272099 2.512153496606495117760005
4.134861398642597940522592 -0.01666666666666668378260496 2.519722797285196325134393
4.14243069932129870380777 -0.02874913740553901655983005 2.512153496606495117760005
4.126362816498089891581458 -0.0003304976223497457028972779 2.526693314120439737280321
4.125433535032282605925502 0.001528065309264738710209874 2.526094530276981942051862
4.132843745381434175101276 -0.01903047904695193831559052 2.517012825785788443511137
4.141594952250278183214505 -0.03486139864259811538271805 2.510625431297230480964799
4.125180910307946646753408 -0.00269431000263499823010882 2.525511407930296492452271
4.125180910307946646753408 0.002694310002634928841169781 2.525511407930296492452271
4.132843745381434175101276 0.01903047904695189321278015 2.517012825785788443511137
4.141594952250278183214505 0.03486139864259810150493024 2.510625431297230480964799
4.139577298989114417793189 -0.002507241213061468104728036 2.507915459797823487519963
4.131661839191291818451646 0.01499517252462565994330923 2.515830919595646086861507
4.139577298989114417793189 0.03249758626231281921636906 2.507915459797823487519963
4.123999004117804290103777 0.0003304976223496765307986733 2.524329501740154135802641
4.124251628842139361097452 -0.0008357470710205133291106905 2.524912624086839585402231
4.187846508984180537993325 -0.004584190337117686336876332 2.542430699321299059079138
4.180277205510141591560114 0.01361054163881372965072547 2.53486139864259740761554
4.187846508984181426171745 0.03180527361474513869943337 2.542430699321298614989928
4.172707904831440828274935 -0.03486139864259808068824853 2.527292097963897088419571
4.172707904831440828274935 0.03486139864259807374935463 2.527292097963896644330362
4.157569300678700230378126 0.004584195927794298096313863 2.512153496606495117760005
4.165138601357401881841724 -0.01361053604813710661558535 2.519722797285195881045183
4.157569300678700230378126 -0.03180526802406852260318715 2.512153496606495117760005
4.442777554234030645829989 0.006665325404186408023154975 2.513887771170154827871102
4.435555108468062002202714 -0.01666666666666666296592325 2.521110216936123471498377
4.442777554234030645829989 -0.026668007929146919643415 2.513887771170154827871102
4.421110216936122938591325 -0.01222311639720917442186732 2.535555108468061646931346
4.41388777117015429496405 -0.03111155819860467880433319 2.542777554234030734647831
4.41388777117015429496405 0.006665325404186324756428128 2.542777554234030734647831
4.428332662702093358575439 -0.03555510846806216040949522 2.513887771170154827871102
4.41388777117015429496405 -0.03555510846806216734838912 2.528332662702093003304071
4.413887771170155183142469 0.03555510846806217428728303 2.528332662702093003304071
4.428332662702093358575439 0.03555510846806216040949522 2.513887771170154827871102
4.476070560740226689233623 0.0003643795178029821482147688 2.524293818777576081657799
4.475808565008465578216601 -0.0008883709813256122217461908 2.524920194027139963566242
4.474253491950438643698362 -0.002221775134728703506026282 2.526475267085166898084481
4.472960414624172820197145 0.0003643795178029831782068326 2.527403964893629950694276
4.467657421434033437890321 -0.0179194171657952629195254 2.516769050452708711418381
4.460030269323124407776504 -0.03422170431465894335776312 2.50825352736047335611147
4.46573796885820417656987 -0.01925282131919835160172028 2.520181519127660862977791
4.458879902610037859744807 -0.03369771285113631886787289 2.511101677744766114130925
4.466102348376006503372082 0.01925282131919835160172028 2.51832412351073564593662
4.457586825283771148065171 0.03555510846806203550940495 2.512030375553229610829931
4.468181412897555659924365 0.01791941716579525945007845 2.51640467093490549643775
4.459768273591363296759482 0.03369771285113631886787289 2.508879902610037682109123
4.468443408629316770941386 -0.0166666666666666664353702 2.515778295685341170440097
4.460554260786645741632128 -0.03066822038935642161239237 2.507889147842670585220048
4.460554260786646629810548 0.002665112943976909957305432 2.507889147842670585220048
4.457222445765968821262959 0.006665325404186279653617753 2.513887771170154827871102
4.464444891531938353068654 -0.01222311639720908768569352 2.521110216936123915587586
4.457222445765968821262959 -0.03111155819860445675972827 2.513887771170154827871102
4.192003813942541512460593 0.002022891473756486483553951 2.560019077531214826137784
4.184007627885082847285503 -0.01666666666666664908813544 2.568015259679420125848992
4.192003813942541512460593 -0.0313104418595768554944847 2.560019077531214826137784
4.175519568488573973752409 -0.0003094521263495918043939792 2.575829020614925024545983
4.175027695149524653572826 0.0006742945517500118684031674 2.575646599402225067620975
4.181378391031328689564361 -0.01886901534632202948049695 2.56623978687858933511734
4.190475751428614614724211 -0.03400762788508330386472167 2.559344779070211295390891
4.17441839414874671376765 -0.00251180080600497089571288 2.574727846275097320472014
4.17441839414874671376765 0.002511800806005045922503216 2.574727846275097320472014
4.181378391031328689564361 0.01886901534632207458330733 2.56623978687858889102813
4.190475751428614614724211 0.03400762788508332468140338 2.559344779070211295390891
4.187846514574860457003069 -0.004584179155758337509407596 2.557569306269380504659239
4.180277216691500541401183 0.01361054163881375220213066 2.565138612538761186954162
4.187846514574860457003069 0.0318052624333858141580933 2.557569306269380504659239
4.173317219808919453782892 0.0003094521263496671564449669 2.573626671935269616398045
4.173926520809697393588067 -0.001528054127905367114495516 2.574545425062397363547007
4.24274726393973367066792 0.006483583638404061613713658 2.56373631969867021851428
4.23549452787946734133584 -0.01666666666666666296592325 2.570989055758936103757151
4.24274726393973367066792 -0.02684974969492926605285632 2.56373631969867021851428
4.226824044664089896627956 -0.0006742997640872543541751272 2.577498344428178711496003
4.225406297508979669430573 0.002161194546134659159875024 2.576754897037154545813564
4.228241788031005476966584 -0.03549452787946799636742412 2.563736315910473795298685
4.217410114057689618505265 -0.01950216097688858493675035 2.568758712282781075941784
4.211575121364338869511812 -0.03549452787946800330631802 2.562249419825342044987337
4.219571304815628920437121 0.0195021609768885814673034 2.570245604579716403037537
4.210157374209227754136009 0.03400763309742059481433074 2.561505972434318323394109
4.228241788031004588788164 0.03549452787946799636742412 2.563736315910473795298685
4.207996183451289340382573 0.002022896686093754448076965 2.560019080137383440387566
4.215992366902579391307881 -0.01531806974466017046143662 2.568015264891757354348556
4.207996183451289340382573 -0.03265903617541409537095021 2.560019080137383440387566
4.297729391828231548799977 0.03637635096938983403358492 2.588646959141158276906935
4.295458783656462387057218 -0.01666666666666666990481716 2.590917567312926550471275
4.297729391828231548799977 0.003043017636056496392354953 2.588646959141158276906935
4.286044853050061220756106 -0.002161194546134618393873339 2.588206047596196768267873
4.278901530615429216197754 0.01212545032312989552736315 2.583223919707699156589342
4.293188175484695001671298 -0.04545878365646323360227399 2.588646959141158276906935
4.271648794555163775044093 -0.03095331153593117515243627 2.575971183647433271346472
4.276521508818028394216526 -0.04545878365646322666338008 2.578682703364163053549873
4.283774244878292947191767 0.03095331153593118556077712 2.585935439424428494703534
4.269378186383395501479754 0.03549452787946794779516679 2.573700575475664997782133
4.293188175484694113492878 0.04545878365646323360227399 2.588646959141158276906935
4.257252736060265441153661 0.006483583638404021715073711 2.563736319698669774425071
4.264505472120530882307321 -0.01234427757439726137944636 2.570989055758935659667941
4.257252736060265441153661 -0.03117213878719854447396642 2.563736319698669774425071
4.343289185767213567146428 0.009735114603280912645710821 2.56644592883606748046077
4.336578371534426601385803 -0.0166666666666666664353702 2.573156743068854002132184
4.343289185767213567146428 -0.02359821873005241849030611 2.56644592883606748046077
4.322182313039528267495371 -0.01212545032312997012047262 2.584307763362658327821464
4.314497068777416899365562 0.003245038201093599673774381 2.588747969423676575928539
4.329867557301639635625179 -0.03657837153442693861604695 2.56644592883606748046077
4.312226460605647737622803 -0.03203715519089023883170242 2.5864773612519083023642
4.313200890634973916348827 -0.03657837153442693861604695 2.57532634095810353258571
4.315471498806742189913166 0.03203715519089023883170242 2.577596949129871806150049
4.305515646372861660040599 0.04545878365646330993010693 2.579766547019121780692785
4.329867557301640523803599 0.03657837153442693167715305 2.56644592883606748046077
4.302270608171768095928655 0.03637635096938991036141786 2.588646959141158276906935
4.304541216343536369492995 0.007584233979593270336128086 2.590917567312926550471275
4.302270608171768095928655 -0.02120788301020336621971474 2.588646959141158276906935
4.392098549563227649628061 0.002591297379372770829514261 2.560492747816144110117875
4.384197099126456720341594 -0.01666666666666666990481716 2.568394198252915039404343