/*--------------------------------*- C++ -*----------------------------------*\
| =========                 |                                                 |
| \\      /  F ield         | OpenFOAM: The Open Source CFD Toolbox           |
|  \\    /   O peration     | Version:  v2012                                 |
|   \\  /    A nd           | Website:  www.openfoam.com                      |
|    \\/     M anipulation  |                                                 |
\*---------------------------------------------------------------------------*/
FoamFile
{
    version     2.0;
    format      ascii;
    class       volScalarField;
    location    "2.3";
    object      alpha.water;
}
// * * * * * * * * * * * * * * * * * * * * * * * * * * * * * * * * * * * * * //

dimensions      [0 0 0 0 0 0 0];


internalField   nonuniform List<scalar> 
96000
(
0
0
0
0
0
0
0
0
0
0
0
0
0
0
0
0
0
0
0
0
0
0
0
0
0
0
0
0
0
0
0
0
0
0
0
0
0
0
0
0
0
0
0
0
0
0
0
0
0
0
0
0
0
0
0
0
0
0
0
0
0
0
0
0
0
0
0
0
0
0
0
0
0
0
0
0
0
0
0
0
0
0
0
0
0
0
0
0
0
0
0
0
0
0
0
0
0
0
0
0
0
0
0
0
0
0
0
0
0
0
0
0
0
0
0
0
0
0
0
0
0
0
0
0
0
0
0
0
0
0
0
0
0
0
0
0
0
0
0
0
0
0
0
0
0
0
0
0
0
0
0
0
0
0
0
0
0
0
0
0
0
0
0
0
0
0
0
0
0
0
0
0
0
0
0
0
0
0
0
0
0
0
0
0
0
0
0
0
0
0
0
0
0
0
0
0
0
0
0
0
0
0
0
0
0
0
0
0
0
0
0
0
0
0
0
0
0
0
0
0
0
0
0
0
0
0
0
0
0
0
0
0
0
0
0
0
0
0
0
0
0
0
0
0
0
0
0
0
0
0
0
0
0
0
0
0
0
0
0
0
0
0
0
0
0
0
0
0
0
0
0
0
0
0
0
0
0
0
0
0
0
0
0
0
0
0
0
0
0
0
0
0
0
0
0
0
0
0
0
0
0
0
0
0
0
0
0
0
0
0
0
0
0
0
0
0
0
0
0
0
0
0
0
0
0
0
0
0
0
0
0
0
0
0
0
0
0
0
0
0
0
0
0
0
0
0
0
0
0
0
0
0
0
0
0
0
0
0
0
0
0
0
0
0
0
0
0
0
0
0
0
0
0
0
0
0
0
0
0
0
0
0
0
0
0
0
0
0
0
0
0
0
0
0
0
0
0
0
0
0
0
0
0
0
0
0
0
0
0
0
0
0
0
0
0
0
0
0
0
0
0
0
0
0
0
0
0
0
0
0
0
0
0
0
0
0
0
0
0
0
0
0
0
0
0
0
0
0
0
0
0
0
0
0
0
0
0
0
0
0
0
0
0
0
0
0
0
0
0
0
0
0
0
0
0
0
0
0
0
0
0
0
0
0
0
0
0
0
0
0
0
0
0
0
0
0
0
0
0
0
0
0
0
0
0
0
0
0
0
0
0
0
0
0
0
0
0
0
0
0
0
0
0
0
0
0
0
0
0
0
0
0
0
0
0
0
0
0
0
0
0
0
0
0
0
0
0
0
0
0
0
0
0
0
0
0
0
0
0
0
0
0
0
0
0
0
0
0
0
0
0
0
0
0
0
0
0
0
0
0
0
0
0
0
0
0
0
0
0
0
0
0
0
0
0
0
0
0
0
0
0
0
0
0
0
0
0
0
0
0
0
0
0
0
0
0
0
0
0
0
0
0
0
0
0
0
0
0
0
0
0
0
0
0
0
0
0
0
0
0
0
0
0
0
0
0
0
0
0
0
0
0
0
0
0
0
0
0
0
0
0
0
0
0
0
0
0
0
0
0
0
0
0
0
0
0
0
0
0
0
0
0
0
0
0
0
0
0
0
0
0
0
0
0
0
0
0
0
0
0
0
0
0
0
0
0
0
0
0
0
0
0
0
0
0
0
0
0
0
0
0
0
0
0
0
0
0
0
0
0
0
0
0
0
0
0
0
0
0
0
0
0
0
0
0
0
0
0
0
0
0
0
0
0
0
0
0
0
0
0
0
0
0
0
0
0
0
0
0
0
0
0
0
0
0
0
0
0
0
0
0
0
0
0
0
0
0
0
0
0
0
0
0
0
0
0
0
0
0
0
0
0
0
0
0
0
0
0
0
0
0
0
0
0
0
0
0
0
0
0
0
0
0
0
0
0
0
0
0
0
0
0
0
0
0
0
0
0
0
0
0
0
0
0
0
0
0
0
0
0
0
0
0
0
0
0
0
0
0
0
0
0
0
0
0
0
0
0
0
0
0
0
0
0
0
0
0
0
0
0
0
0
0
0
0
0
0
0
0
0
0
0
0
0
0
0
0
0
0
0
0
0
0
0
0
0
0
0
0
0
0
0
0
0
0
0
0
0
0
0
0
0
0
0
0
0
0
0
0
0
0
0
0
0
0
0
0
0
0
0
0
0
0
0
0
0
0
0
0
0
0
0
0
0
0
0
0
0
0
0
0
0
0
0
0
0
0
0
0
0
0
0
0
0
0
0
0
0
0
0
0
0
0
0
0
0
0
0
0
0
0
0
0
0
0
0
0
0
0
0
0
0
0
0
0
0
0
0
0
0
0
0
0
0
0
0
0
0
0
0
0
0
0
0
0
0
0
0
0
0
0
0
0
0
0
0
0
0
0
0
0
0
0
0
0
0
0
0
0
0
0
0
0
0
0
0
0
0
0
0
0
0
0
0
0
0
0
0
0
0
0
0
0
0
0
0
0
0
0
0
0
0
0
0
0
0
0
0
0
0
0
0
0
0
0
0
0
0
0
0
0
0
0
0
0
0
0
0
0
0
0
0
0
0
0
0
0
0
0
0
0
0
0
0
0
0
0
0
0
0
0
0
0
0
0
0
0
0
0
0
0
0
0
0
0
0
0
0
0
0
0
0
0
0
0
0
0
0
0
0
0
0
0
0
0
0
0
0
0
0
0
0
0
0
0
0
0
0
0
0
0
0
0
0
0
0
0
0
0
0
0
0
0
0
0
0
0
0
0
0
0
0
0
0
0
0
0
0
0
0
0
0
0
0
0
0
0
0
0
0
0
0
0
0
0
0
0
0
0
0
0
0
0
0
0
0
0
0
0
0
0
0
0
0
0
0
0
0
0
0
0
0
0
0
0
0
0
0
0
0
0
0
0
0
0
0
0
0
0
0
0
0
0
0
0
0
0
0
0
0
0
0
0
0
0
0
0
0
0
0
0
0
0
0
0
0
0
0
0
0
0
0
0
0
0
0
0
0
0
0
0
0
0
0
0
0
0
0
0
0
0
0
0
0
0
0
0
0
0
0
0
0
0
0
0
0
0
0
0
0
0
0
0
0
0
0
0
0
0
0
0
0
0
0
0
0
0
0
0
0
0
0
0
0
0
0
0
0
0
0
0
0
0
0
0
0
0
0
0
0
0
0
0
0
0
0
0
0
0
0
0
0
0
0
0
0
0
0
0
0
0
0
0
0
0
0
0
0
0
0
0
0
0
0
0
0
0
0
0
0
0
0
0
0
0
0
0
0
0
0
0
0
0
0
0
0
0
0
0
0
0
0
0
0
0
0
0
0
0
0
0
0
0
0
0
0
0
0
0
0
0
0
0
0
0
0
0
0
0
0
0
0
0
0
0
0
0
0
0
0
0
0
0
0
0
0
0
0
0
0
0
0
0
0
0
0
0
0
0
0
0
0
0
0
0
0
0
0
0
0
0
0
0
0
0
0
0
0
0
0
0
0
0
0
0
0
0
0
0
0
0
0
0
0
0
0
0
0
0
0
0
0
0
0
0
0
0
0
0
0
0
0
0
0
0
0
0
0
0
0
0
0
0
0
0
0
0
0
0
0
0
0
0
0
0
0
0
0
0
0
0
0
0
0
0
0
0
0
0
0
0
0
0
0
0
0
0
0
0
0
0
0
0
0
0
0
0
0
0
0
0
0
0
0
0
0
0
0
0
0
0
0
0
0
0
0
0
0
0
0
0
0
0
0
0
0
0
0
0
0
0
0
0
0
0
0
0
0
0
0
0
0
0
0
0
0
0
0
0
0
0
0
0
0
0
0
0
0
0
0
0
0
0
0
0
0
0
0
0
0
0
0
0
0
0
0
0
0
0
0
0
0
0
0
0
0
0
0
0
0
0
0
0
0
0
0
0
0
0
0
0
0
0
0
0
0
0
0
0
0
0
0
0
0
0
0
0
0
0
0
0
0
0
0
0
0
0
0
0
0
0
0
0
0
0
0
0
0
0
0
0
0
0
0
0
0
0
0
0
0
0
0
0
0
0
0
0
0
0
0
0
0
0
0
0
0
0
0
0
0
0
0
0
0
0
0
0
0
0
0
0
0
0
0
0
0
0
0
0
0
0
0
0
0
0
0
0
0
0
0
0
0
0
0
0
0
0
0
0
0
0
0
0
0
0
0
0
0
0
0
0
0
0
0
0
0
0
0
0
0
0
0
0
0
0
0
0
0
0
0
0
0
0
0
0
0
0
0
0
0
0
0
0
0
0
0
0
0
0
0
0
0
0
0
0
0
0
0
0
0
0
0
0
0
0
0
0
0
0
0
0
0
0
0
0
0
0
0
0
0
0
0
0
0
0
0
0
0
0
0
0
0
0
0
0
0
0
0
0
0
0
0
0
0
0
0
0
0
0
0
0
0
0
0
0
0
0
0
0
0
0
0
0
0
0
0
0
0
0
0
0
0
0
0
0
0
0
0
0
0
0
0
0
0
0
0
0
0
0
0
0
0
0
0
0
0
0
0
0
0
0
0
0
0
0
0
0
0
0
0
0
0
0
0
0
0
0
0
0
0
0
0
0
0
0
0
0
-4.743988300685539397664517e-59
-4.655741849926283240970644e-47
-2.367305852468597915015234e-45
-6.007074674989542331554455e-44
-1.014272808830453536618292e-42
-1.281985633421675428053581e-41
-1.293831557764503988076397e-40
-1.086095520692441779973798e-39
-7.799900737270157964242241e-39
-4.892110435219472730266383e-38
-2.722258700640906035880515e-37
-1.36076731416462968358566e-36
-6.171983246976045166479942e-36
-7.16361001836446598694439e-36
-8.301392697764634378086518e-36
-9.604344595919462697137204e-36
-1.109348017717660782892953e-35
-1.279193840366238005982222e-35
-1.4725096511543932010662e-35
-1.692066978981751008882959e-35
-1.940879224472717286283185e-35
-2.222207232275850560327896e-35
-2.539561714927755131431339e-35
-2.896701804021097365615568e-35
-3.297628938792921528045132e-35
-3.746575244232569177863849e-35
-4.247985504249915108139391e-35
-4.806491804748791284102085e-35
-5.42687991158005172355288e-35
-6.114046464685456033329547e-35
-6.872946118089969772211306e-35
-7.708527841673280070459449e-35
-8.625659730835785551114253e-35
-9.629041849860869384284946e-35
-1.072310686903390859481241e-34
-1.191190854833971036118584e-34
-1.319899847437797277161883e-34
-1.458729187249603516913623e-34
-1.607892379108382265941705e-34
-1.767509748446518668720168e-34
-1.937592739623596574985074e-34
-2.118027975362613885403037e-34
-2.308561440851965263566504e-34
-2.508783218042675933047379e-34
-2.718113254496991639071856e-34
-2.93578870375465422807335e-34
-3.160853417173822590965112e-34
-3.392150196851257513081195e-34
-3.628316431682808049834417e-34
-3.867783730070118338662569e-34
-4.108782129624338561752946e-34
-4.349349403379888304657533e-34
-4.587345891197916501405141e-34
-4.820475162942014345108875e-34
-5.046310666762749458491249e-34
-5.262328333128021804618755e-34
-5.465944896636438309348581e-34
-5.654561468673818775102555e-34
-5.825611652147052541401396e-34
-5.976613244336291657861707e-34
-6.105222336512464414410852e-34
-6.209288401861824837528819e-34
-6.286908779675535381097215e-34
-6.3364808270244765064166e-34
-6.356749931763751864540881e-34
-6.346851573572954912057386e-34
-6.30634569109811014711467e-34
-6.235241767873507556875322e-34
-6.134013288084358199506215e-34
-6.003600531068760147095309e-34
-5.845401061342873631506392e-34
-5.661247714419977321328507e-34
-5.453374358731211780803974e-34
-8.856681887812773019645296e-34
-1.3530725020079446278064e-33
-1.953048834893925911585752e-33
-2.673477549894394320810403e-33
-3.481972425339549697234024e-33
-4.327108932288738193811839e-33
-5.143840162270649088250954e-33
-5.862280888819545774179602e-33
-6.418086958690515853376561e-33
-6.762196406080317976244287e-33
-6.867869032846138437264367e-33
-6.733682706107150766257717e-33
-6.382164722814311202009371e-33
-5.854735654086743856826441e-33
-5.204349862751558753856232e-33
-4.487488467180845840410425e-33
-3.757003903526674903492009e-33
-3.056854861860856612701229e-33
-2.419185114725507547182045e-33
-1.863658201027897352088727e-33
-1.398575737394345598784533e-33
-1.023123238261799008013815e-33
-7.300853509334002900185438e-34
-5.08496505464722426749733e-34
-3.458762592535837416072733e-34
-2.298835525918048794497118e-34
-1.493731718572870731454974e-34
-9.493499509674126135298732e-35
-5.904318076211356079773516e-35
-3.59495539832865184579397e-35
-2.143774104440804183304549e-35
-1.252561623750174745165969e-35
-7.173293078448287674385388e-36
-4.028049758215189231446921e-36
-2.21859638200236849213278e-36
-1.198982801962248679965239e-36
-6.359700635602636153275317e-37
-3.311933852244647666460106e-37
-1.693849232687483907246524e-37
-8.510161436734985361915189e-38
-4.201340708788708050721307e-38
-2.038626734250433527826833e-38
-9.725136090944300570579593e-39
-4.562115725238703678690247e-39
-2.104991121157184340808423e-39
-9.555309643882222222453136e-40
-4.268188406197412629141739e-40
-1.876451363492249002630528e-40
-8.121074801144689587020974e-41
-3.460643327502176001415123e-41
-1.452276184125765413585689e-41
-6.003021874817365042455006e-42
-2.444532213297234765391457e-42
-9.808467074523091899444134e-43
-3.878449813895427180528904e-43
-1.511599806481039482820471e-43
-5.80771049168039054746018e-44
-2.200029179501235479244537e-44
-8.21809640323030459542532e-45
-3.027578794770039394074801e-45
-1.100174247875524078636194e-45
-3.943918814057870036731811e-46
-1.394928598782469725908092e-46
-4.868430764158729110550304e-47
-1.676845346455989147989272e-47
-5.70054725468714929739606e-48
-1.912981454813165429710571e-48
-6.337608905398240551193408e-49
-2.073046649133765443974472e-49
-6.695899466030064720354896e-50
-2.135851326804835588909025e-50
-6.728840342432709786208451e-51
-2.093920906940380936048442e-51
-6.43685618793610402454689e-52
-1.954890346174917591488709e-52
-5.866061503473537739384307e-53
-1.739346039760124213517075e-53
-5.096583383388316389083867e-54
-1.475922958800532069818948e-54
-4.224510546039793555557701e-55
-1.195234504301919745371988e-55
-3.342942110585648202099294e-56
-9.243528008006125112198007e-57
-2.527046214860130829195575e-57
-6.831053354006146518799201e-58
-1.82596740031099967589949e-58
-4.826810357207096968399319e-59
-1.261884526547786167808107e-59
-3.262877178792269045207604e-60
-8.345117137521606597488116e-61
-2.111265868781476224106638e-61
-5.28396220737072886028375e-62
-1.308306843196220404366748e-62
-3.20493230025752534279583e-63
-7.768067894769048299762697e-64
-1.863017857019320687711234e-64
-4.421353198904284726974742e-65
-1.038368064870274940833506e-65
-2.413395496675247287984206e-66
-5.551486556782064051971087e-67
-1.263908653595114794218317e-67
-2.848190898836681693570007e-68
-6.353168328595479056958715e-69
-1.402813000239640850120826e-69
-3.066317287622922438560669e-70
-6.635314001215307293213594e-71
-1.421515465272897988450058e-71
-3.015126360119465629014898e-72
-6.331998759278831213313912e-73
-1.316662638363659075188495e-73
-2.710959691635622297283025e-74
-5.527164489097146108469104e-75
-1.115906676141651384981013e-75
-2.231075891887805707440567e-76
-4.417494917901432494779072e-77
-8.662170410375515575009735e-78
-1.682207122105392938668483e-78
-3.235540481260383262958369e-79
-6.163690001079147061980566e-80
-1.162981117987356586558312e-80
-2.173467683540091663743725e-81
-4.02339285335639780974046e-82
-7.37734072759037049478093e-83
-1.339936222530016618186453e-83
-2.410756349094164950383873e-84
-4.296498828562680674272317e-85
-7.585335030297106371385026e-86
-1.326597633340230765938134e-86
-2.298332616858474483902174e-87
-3.944570083687539394737614e-88
-6.706602473348231758770539e-89
-1.129596855046032253310842e-89
-1.884791156743032073020336e-90
-3.115455083596972403677483e-91
-5.101485094337733801591578e-92
-8.275335443119315118376148e-93
-1.329792664501984426869837e-93
-2.116827353077605080222987e-94
-3.337967914628316903785929e-95
-5.213917226553292604725145e-96
-8.067132636112503717559585e-97
-1.236325230364958840051773e-97
-1.87666764490478077751654e-98
-2.821386859093633282324209e-99
-4.200825046519909487015065e-100
-6.194058526256734277067824e-101
-9.043828101568360565375976e-102
-1.307458413068154486824021e-102
-1.871364206696233715946936e-103
-2.651507225518894746780069e-104
-3.718538771906214042912534e-105
-5.160930061470129091451464e-106
-7.08727499664842245779656e-107
-9.627902795111152079211216e-108
-1.293521357220981453633498e-108
-1.718194986019718257156271e-109
-2.255639226026441622457483e-110
-2.925322929971479590527086e-111
-3.745861814530076423476573e-112
-4.732774972922315663407023e-113
-5.895309259383217768764739e-114
-7.232145522312416977812276e-115
-8.725812334942791316868014e-116
-1.033566458918086455865757e-116
-1.198934081002032875096757e-117
-1.357269825608764685486639e-118
-1.491834122510298383371979e-119
-1.579300559874546354319833e-120
-1.588423854723467419686936e-121
-1.478700967155380510583418e-122
-1.199109761083898481726097e-123
-6.870298797266728719964772e-125
1.325316949742658978655717e-126
1.34727486408882831815914e-126
3.057358983911043749035897e-127
5.374436020402508321656906e-128
8.419841820772264119470507e-129
1.232185146879381610015426e-129
1.721194685260345992877113e-130
2.322009992259918345683358e-131
3.046914177325409692959966e-132
3.906836234624220143022046e-133
4.91065635563520685280347e-134
6.064486416107796878760816e-135
7.370962111843101598200606e-136
8.828588262425383429021864e-137
1.043118159694682291578254e-137
1.216745533321771914933228e-138
1.402078668623533965123289e-139
1.596920194711414394189136e-140
1.798560408689967205478169e-141
2.003825537763538163430625e-142
2.209151298456973694481279e-143
2.410679980960163788866024e-144
2.604377717446715993778515e-145
2.786167142573856592160411e-146
2.952069440670732166961394e-147
3.098348902834674977614209e-148
3.221652670523699730775418e-149
3.319138370730410222715378e-150
3.388582864357476944352639e-151
3.428466307168459172208816e-152
3.438027096572247315528367e-153
3.417284949541894034914917e-154
3.367031204735164946894649e-155
3.288787329461202639909897e-156
3.184734402056788945280001e-157
3.057617905700017060938432e-158
2.910633405169083476424505e-159
2.747299507920008699742724e-160
2.57132489452465658773885e-161
2.386476137473600201041075e-162
2.196452543251125099933373e-163
2.004773412569645561120896e-164
1.814682002788912282399653e-165
1.629069194127138472045494e-166
1.450418511105606771956545e-167
1.280772832162970211315262e-168
1.121721920558736105783463e-169
9.744088973710275451368862e-171
8.395529994854608323692933e-172
7.174854456678451512612502e-173
6.081949735826074754224703e-174
5.113795919536775452513793e-175
4.265012816440664046930499e-176
3.528407334838689436216925e-177
2.895496801063697161713077e-178
2.356989141788078984018544e-179
1.903206400394124120339209e-180
1.524443402410860499420667e-181
1.211258217591950556477941e-182
9.546951698375273916284929e-184
7.464443978010831412319077e-185
5.789443305739914272184104e-186
4.454349470958173744241111e-187
3.399704213411187737079293e-188
2.573998399218738719213887e-189
1.933242549271688832441892e-190
1.440375465373013016818922e-191
1.064575528226579904073749e-192
7.805279717068521759957885e-194
5.676900434832382517619114e-195
4.095851808417224366819434e-196
2.931476687055604002677672e-197
2.081310014262629666765906e-198
1.465864619888769624401452e-199
1.024132457361178118406215e-200
7.097767635392488457146619e-202
4.879651350308783401098181e-203
3.327782674185438315775413e-204
2.251219501288134465274019e-205
1.510688153105130097337576e-206
1.005594928346597613457743e-207
6.639869952354174754133732e-209
4.348916869934217973404878e-210
2.825428147509013603805791e-211
1.820813494689910594167108e-212
1.163914059212673952304081e-213
7.379835048957582170870347e-215
4.641288206413316416109072e-216
2.895291079587668729409469e-217
1.791443971403403877598886e-218
1.099428120874553190894615e-219
6.692343107631168691918914e-221
4.040473454850907192734049e-222
2.41948981217888516226621e-223
1.436969072110383791710294e-224
8.464426817828134821694069e-226
4.945024531176500088717061e-227
2.865195005252818915135495e-228
1.646450436251720749588153e-229
9.383084030991285165408673e-231
5.303206886967279138929371e-232
2.97249362034053655537516e-233
1.652288539528229966011729e-234
9.108072384604032141307001e-236
4.978924362772944561193012e-237
2.699017673917811549539709e-238
1.450873561125978645852041e-239
7.73391437283817265465607e-241
4.087965696757673063680663e-242
2.142620092586869514407504e-243
1.113537700493382378426441e-244
5.73823184684454560039178e-246
2.931946762788900312020945e-247
1.485354497183212961371133e-248
7.460900261101280817286103e-250
3.715611395418377218618235e-251
1.834585391772785368604812e-252
8.980585208759372705422689e-254
4.358335740522251986129005e-255
2.096892406461883428248092e-256
1.000140273157578134582621e-257
4.728949484460183774035584e-259
2.216546825191258159828331e-260
1.029880665291055101567368e-261
4.74333432519955425024863e-263
2.165490457819879268328292e-264
9.799257718044948827390826e-266
4.395243089283550617879112e-267
1.953950993879711090404652e-268
8.609412103870797894197111e-270
3.759673936059976635589955e-271
1.62716387038602887233957e-272
6.979176356785436154342688e-274
2.966579116548440055348882e-275
1.249607031174454129960112e-276
5.216069762306907170052927e-278
2.157506593577925038482941e-279
8.842719338502916396077285e-281
3.591124249843057840027981e-282
1.445012367715096352490959e-283
5.76095714226171992570118e-285
2.275541803958054370038847e-286
8.90485738900347367505797e-288
3.452277596070822006160394e-289
1.325883555075314462797449e-290
5.044406263281187696922744e-292
1.901093641789158777864126e-293
7.096909048756895760635907e-295
0
0
0
0
0
0
-1.05502081016439478215068e-44
-5.38563168121032689105705e-43
-1.37190333450041866665819e-41
-2.325182301428196115038159e-40
-2.949757704731965920511521e-39
-2.987699769873161560487825e-38
-2.516716812761416892728287e-37
-1.813467502098241381464765e-36
-1.141076885839657499571712e-35
-6.369217040825853643582396e-35
-3.193119445693943623853048e-34
-1.452325810220996626372811e-33
-6.042739908227330114459331e-33
-2.316051866535939075826137e-32
-2.626089757682594806233544e-32
-2.972288049731198768819448e-32
-3.357972411514444256337433e-32
-3.786628816617319652326303e-32
-4.261886084563767243707968e-32
-4.787492957561932453355963e-32
-5.367289132732893930474442e-32
-6.005169696539494073181626e-32
-6.705042455758808489593097e-32
-7.470777730915376489303925e-32
-8.306150276596644437720754e-32
-9.214773121210917318737447e-32
-1.020002327876681655150999e-31
-1.12649594787403476818949e-31
-1.241223228776077745478294e-31
-1.364398725827452494348665e-31
-1.496176203276719154430084e-31
-1.636637865415015032440584e-31
-1.785783267833946316267065e-31
-1.943518104662708487671311e-31
-2.109643104375847086645276e-31
-2.283843303103537793904706e-31
-2.465677998838962829593851e-31
-2.654571720926729821353164e-31
-2.84980657495749011468984e-31
-3.050516341771946684777907e-31
-3.255682718700967070922647e-31
-3.464134089442821856212882e-31
-3.67454719420257317875396e-31
-3.885452042192570586014343e-31
-4.095240362939082861361133e-31
-4.302177830142030666350054e-31
-4.504420211751512534991272e-31
-4.700033502847358191671134e-31
-4.887017985040494544062018e-31
-5.063336029596161644231378e-31
-5.226943324408780310293874e-31
-5.375823061437041785006099e-31
-5.5080224762576439379485e-31
-5.621690990889064577815074e-31
-5.715119081482062724542828e-31
-5.786776880804902665427559e-31
-5.835351438680173561924419e-31
-5.859781508410462080673665e-31
-5.859288709812259230008115e-31
-5.833403944702860549472609e-31
-5.781988011934073375131152e-31
-5.705245487785019360209948e-31
-5.603731102880730324647603e-31
-5.47834805548023251478993e-31
-5.330337947070816848015907e-31
-5.161262301301232988550362e-31
-4.972975920694612698326725e-31
-4.76759263475605579794012e-31
-4.547444284210880001899001e-31
-4.315034054821513469923867e-31
-4.072985506463495921564894e-31
-3.823988826004346800671342e-31
-3.570745955178264082414783e-31
-3.315916299093632024519419e-31
-4.783731509625944430989273e-31
-6.541367940689859890578896e-31
-8.506344244547234993096488e-31
-1.054988699176075145765114e-30
-1.251110292026063459943912e-30
-1.421927144873644141041956e-30
-1.551963947642756087298246e-30
-1.629707997487458214739938e-30
-1.649256931687612617047595e-30
-1.61093823129377899028587e-30
-1.520851439650921431342355e-30
-1.389529840038161315450017e-30
-1.230082965874894387791475e-30
-1.056233676385287788890175e-30
-8.80610636148514241244913e-31
-7.135338776761406621946698e-31
-5.623837918745994932595763e-31
-4.315134333213369652010033e-31
-3.225762189732607434627438e-31
-2.351037098923667153689978e-31
-1.671743198115721752870227e-31
-1.160484268608964609040547e-31
-7.869179550569958289309559e-32
-5.215386914944583432090623e-32
-3.380208335560963588319578e-32
-2.143486904700158832667345e-32
-1.330539284403507149822123e-32
-8.088396738401703148878314e-33
-4.817408555971513736080493e-33
-2.812288828393508956331717e-33
-1.609801018108849470539812e-33
-9.038837872591523940105911e-34
-4.980073783523338470377958e-34
-2.693327930852521123793588e-34
-1.430255848148416522142974e-34
-7.460083638958559838291203e-35
-3.82302897594718296181548e-35
-1.925432288169843040032805e-35
-9.532859990078983581446864e-36
-4.640929955891118860138663e-36
-2.222191359436720524957322e-36
-1.046781117935542372175334e-36
-4.85207400322706832848303e-37
-2.213559504825756587492684e-37
-9.941195273713166286752855e-38
-4.395997437188698113774908e-38
-1.914397463005614075923479e-38
-8.211904368172406884587261e-39
-3.470331556779463495322985e-39
-1.445069482152295487822863e-39
-5.930206499676938873287348e-40
-2.39874631111007697952687e-40
-9.565328725975532238509969e-41
-3.760814514151995175688033e-41
-1.458120913505559025546163e-41
-5.575654822915460925565252e-42
-2.10304263804899537227908e-42
-7.825415578357565416586037e-43
-2.872958704989997208239574e-43
-1.040801284135640931180345e-43
-3.72113082669296396461885e-44
-1.313111002158971985688868e-44
-4.574004297534964805806353e-45
-1.572925617194588344064224e-45
-5.340511241802440344707303e-46
-1.790464824372652211467299e-46
-5.927903702718915480568839e-47
-1.938348203906863592541776e-47
-6.26036391143173071477505e-48
-1.997308947760002950833094e-48
-6.295185659321624917103515e-49
-1.960325683911864150331816e-49
-6.03173334449448758353136e-50
-1.833948659596565690434959e-50
-5.510606461589037807948402e-51
-1.636492460274798477286249e-51
-4.803584107320420059212557e-52
-1.393757354226158294586204e-52
-3.99771810757128350016327e-53
-1.13363301711924380659137e-53
-3.178333840532941017664028e-54
-8.810974207104410565343253e-55
-2.415325947626529633541379e-55
-6.547632702426630689165281e-56
-1.755408989416727214047297e-56
-4.654637311563232875703752e-57
-1.22077141905686915039239e-57
-3.167019190450085280082891e-58
-8.127577922070409503758393e-59
-2.063437821539792462843252e-59
-5.182825135014930643600368e-60
-1.287986237955784131767544e-60
-3.167009829632703805546811e-61
-7.705567168281655373214816e-62
-1.855238630365298329136032e-62
-4.420357070111746711879402e-63
-1.042315634749429889858545e-63
-2.432466617963187532981078e-64
-5.618510137360085941162087e-65
-1.284524813732790261215086e-65
-2.906904654394030544404361e-66
-6.511865978727115038742215e-67
-1.444060620163387193343258e-67
-3.170218089403620313938115e-68
-6.890243188312376500798519e-69
-1.48265163976426890911413e-69
-3.15878330188554310264287e-70
-6.66335842295315380434033e-71
-1.391794595296083383129134e-71
-2.878599554194265225477524e-72
-5.895579625477207185461186e-73
-1.19570878698630640557924e-73
-2.40155196891939618888001e-74
-4.776829059494839841314708e-75
-9.409824349753544647646132e-76
-1.835819032072950402749683e-76
-3.547289542951258457016691e-77
-6.788802211540216355295899e-78
-1.286856658505657055444146e-78
-2.41611642539910076917192e-79
-4.493303594638907822975263e-80
-8.277187922913039679527397e-81
-1.510348904658073201163463e-81
-2.72996299033385439422215e-82
-4.887965283641621003751827e-83
-8.669568250687769199956713e-84
-1.523246426330652975669239e-84
-2.651250179400753621620232e-85
-4.571331543649858115699955e-86
-7.80816313562811958942682e-87
-1.321206993904222695331542e-87
-2.214671313334649293034625e-88
-3.677592226796142671718046e-89
-6.049673493942465981868695e-90
-9.858508316358227567098557e-91
-1.59146372643877102480438e-91
-2.544967778502694642258157e-92
-4.031436291836657293045088e-93
-6.325855740883626496182824e-94
-9.832151489533157728266471e-95
-1.513676387323947005814614e-95
-2.308104132536242983639855e-96
-3.485742394140838796749264e-97
-5.213494220855316148596437e-98
-7.721976800819968498904896e-99
-1.132561681461180692009649e-99
-1.644718745455626003802177e-100
-2.364691517768122094348089e-101
-3.365581661651095928685364e-102
-4.741220123941310146817634e-103
-6.609922547372422241498118e-104
-9.117994214056684711891195e-105
-1.244243980750461482041402e-105
-1.679209576310611607660276e-106
-2.240611728565905815565625e-107
-2.954842407520785633892038e-108
-3.849635181040884467450172e-109
-4.952139338590216125035297e-110
-6.285957879409301975615469e-111
-7.866878142678762767142565e-112
-9.697010934216548112799577e-113
-1.175706107080086991338405e-113
-1.399648676348183918119416e-114
-1.632137469121607860678483e-115
-1.857996869938582093800329e-116
-2.054594771054386623998466e-117
-2.189975457479282686973646e-118
-2.220852988652438327786839e-119
-2.090549551143678673409719e-120
-1.72699476366970703210171e-121
-1.040933772328560863945764e-122
7.547856583996646186469637e-125
1.749496356711779944188224e-124
4.127798771810097265457691e-125
7.375486921698579093465641e-126
1.167386023503879385016234e-126
1.721680585776794018203041e-127
2.42056903461356892102641e-128
3.284271965976757344215625e-129
4.332282920908680249998253e-130
5.582427635649396108435721e-131
7.049822701269478100272111e-132
8.745774754118978021839749e-133
1.067667233123340055199542e-133
1.284293153614119334361219e-134
1.523806262339993757588499e-135
1.784792659190912842625763e-136
2.065024816525650514291055e-137
2.361444373879349698907514e-138
2.670180999085766746511698e-139
2.98661013356142038157225e-140
3.305450313133369771704941e-141
3.620898385360232961900537e-142
3.926798492462354686956372e-143
4.216838338299945123984891e-144
4.484764195344051420455134e-145
4.724604507769909031773064e-146
4.930890954949259885560359e-147
5.098865557070082091900223e-148
5.224662877820723202184408e-149
5.305457593495553068172106e-150
5.339569577873950826757243e-151
5.326521066713863889840564e-152
5.267043239319406158150661e-153
5.163032483224296488667117e-154
5.017459476873964811248942e-155
4.834236827823038082708886e-156
4.618053160298855260135122e-157
4.374183116928356634048773e-158
4.108283637657934977501841e-159
3.826187073898529576333476e-160
3.533701213962405640554612e-161
3.236425214083423879719853e-162
2.939588866276636836536098e-163
2.647920736498600088261133e-164
2.365548634282888009200531e-165
2.095933787325495182202434e-166
1.841838136371526232489862e-167
1.605322457275395410068755e-168
1.387771646305200895050316e-169
1.189942523973067895248871e-170
1.01202893858882349428013e-171
8.537387675833708568882443e-173
7.143775798675807608219747e-174
5.929341739190943223225708e-175
4.881638700834613523958772e-176
3.986662339581122871188002e-177
3.229547658093459496474682e-178
2.595169422574036292100339e-179
2.068637866579325881462595e-180
1.635688337258113007353828e-181
1.282969167877396238176271e-182
9.982363134827448594699052e-184
7.704661718488105749575451e-185
5.898996325438686838182663e-186
4.48030923207710322275598e-187
3.375544638518022541200377e-188
2.522819215695642915563907e-189
1.87040198075645833572962e-190
1.375593783705250870302685e-191
1.003578868820868688790129e-192
7.263036797309070406513677e-194
5.214222426007620094892978e-195
3.713336796520755325124611e-196
2.623259699664849104169722e-197
1.838310416661019978876768e-198
1.277895267460020735831063e-199
8.811879573988496055688719e-201
6.027490549894081950521863e-202
4.089750611628189926491361e-203
2.752623570468182800985966e-204
1.837738617395925015587739e-205
1.217039263372433047064489e-206
7.994773910023722281592016e-208
5.209369465893560103466762e-209
3.366959934759147084022065e-210
2.158543489025733450855212e-211
1.372618315862261037967391e-212
8.657665282170457806247731e-214
5.41638477343150620264995e-215
3.361022819538411799020236e-216
2.068626049710882395546345e-217
1.262804889905453527320702e-218
7.64591105846807656317509e-220
4.59151234951291078831166e-221
2.734704658154966304394506e-222
1.615428412990264362757229e-223
9.464156127760913907456663e-225
5.499042430348668899568343e-226
3.168817072337017158412634e-227
1.810947852768229247884919e-228
1.026377150380589394716908e-229
5.768908653652219192925867e-231
3.215579363728171856653787e-232
1.777447315923767717779523e-233
9.74314235617297151377972e-235
5.296132748288705558382572e-236
2.85475404972882714125461e-237
1.525881803417986930935287e-238
8.087375551579480926310469e-240
4.250312159843075855910032e-241
2.214890915372477906490913e-242
1.144441950040069487014624e-243
5.863224711959976244608956e-245
2.978323710689153940519027e-246
1.499998785388249758028278e-247
7.490045147474052053841507e-249
3.708029364143239596534452e-250
1.819942157236041852743624e-251
8.855600046620257058987936e-253
4.271835230979793771540145e-254
2.042852396489497827810723e-255
9.684455017532212761082585e-257
4.551123204549904075951691e-258
2.120100800292592698284524e-259
9.78989504648978556677332e-261
4.480970245795299293120973e-262
2.03295264390166016225099e-263
9.141808275517398555504941e-265
4.074504969073845237333356e-266
1.799879888248768099632038e-267
7.879994939583461604414104e-269
3.419083313266421784778941e-270
1.470219302407887329708647e-271
6.265134234835641774557823e-273
2.645704658812046930725475e-274
1.107137921016107937219059e-275
4.590900643321693966583728e-277
1.886322920909401906968012e-278
7.679661890383864999774547e-280
3.097859705576604833644765e-281
1.238113336988361407804038e-282
4.902563541371974722149123e-284
1.923247306775800706793201e-285
7.474475765356290949227209e-287
2.877692633508527121208975e-288
1.097514369069258080723185e-289
4.146311885578114614225868e-291