/*--------------------------------*- C++ -*----------------------------------*\
| =========                 |                                                 |
| \\      /  F ield         | OpenFOAM: The Open Source CFD Toolbox           |
|  \\    /   O peration     | Version:  v2012                                 |
|   \\  /    A nd           | Website:  www.openfoam.com                      |
|    \\/     M anipulation  |                                                 |
\*---------------------------------------------------------------------------*/
FoamFile
{
    version     2.0;
    format      ascii;
    class       volScalarField;
    location    "0.9";
    object      alpha.water;
}
// * * * * * * * * * * * * * * * * * * * * * * * * * * * * * * * * * * * * * //

dimensions      [0 0 0 0 0 0 0];


internalField   nonuniform List<scalar> 
96000
(
0
0
0
0
0
0
0
0
0
0
0
0
0
0
0
0
0
0
0
0
0
0
0
0
0
0
0
0
0
0
0
0
0
0
0
0
0
0
0
0
0
0
0
0
0
0
0
0
0
0
0
0
0
0
0
0
0
0
0
0
0
0
0
0
0
0
0
0
0
0
0
0
0
0
0
0
0
0
0
0
0
0
0
0
0
0
0
0
0
0
0
0
0
0
0
0
0
0
0
0
0
0
0
0
0
0
0
0
0
0
0
0
0
0
0
0
0
0
0
0
0
0
0
0
0
0
0
0
0
0
0
0
0
0
0
0
0
0
0
0
0
0
0
0
0
0
0
0
0
0
0
0
0
0
0
0
0
0
0
0
0
0
0
0
0
0
0
0
0
0
0
0
0
0
0
0
0
0
0
0
0
0
0
0
0
0
0
0
0
0
0
0
0
0
0
0
0
0
0
0
0
0
0
0
0
0
0
0
0
0
0
0
0
0
0
0
0
0
0
0
0
0
0
0
0
0
0
0
0
0
0
0
0
0
0
0
0
0
0
0
0
0
0
0
0
0
0
0
0
0
0
0
0
0
0
0
0
0
0
0
0
0
0
0
0
0
0
0
0
0
0
0
0
0
0
0
0
0
0
0
0
0
0
0
0
0
0
0
0
0
0
0
0
0
0
0
0
0
0
0
0
0
0
0
0
0
0
0
0
0
0
0
0
0
0
0
0
0
0
0
0
0
0
0
0
0
0
0
0
0
0
0
0
0
0
0
0
0
0
0
0
0
0
0
0
0
0
0
0
0
0
0
0
0
0
0
0
0
0
0
0
0
0
0
0
0
0
0
0
0
0
0
0
0
0
0
0
0
0
0
0
0
0
0
0
0
0
0
0
0
0
0
0
0
0
0
0
0
0
0
0
0
0
0
0
0
0
0
0
0
0
0
0
0
0
0
0
0
0
0
0
0
0
0
0
0
0
0
0
0
0
0
0
0
0
0
0
0
0
0
0
0
0
0
0
0
0
0
0
0
0
0
0
0
0
0
0
0
0
0
0
0
0
0
0
0
0
0
0
0
0
0
0
0
0
0
0
0
0
0
0
0
0
0
0
0
0
0
0
0
0
0
0
0
0
0
0
0
0
0
0
0
0
0
0
0
0
0
0
0
0
0
0
0
0
0
0
0
0
0
0
0
0
0
0
0
0
0
0
0
0
0
0
0
0
0
0
0
0
0
0
0
0
0
0
0
0
0
0
0
0
0
0
0
0
0
0
0
0
0
0
0
0
0
0
0
0
0
0
0
0
0
0
0
0
0
0
0
0
0
0
0
0
0
0
0
0
0
0
0
0
0
0
0
0
0
0
0
0
0
0
0
0
0
0
0
0
0
0
0
0
0
0
0
0
0
0
0
0
0
0
0
0
0
0
0
0
0
0
0
0
0
0
0
0
0
0
0
0
0
0
0
0
0
0
0
0
0
0
0
0
0
0
0
0
0
0
0
0
0
0
0
0
0
0
0
0
0
0
0
0
0
0
0
0
0
0
0
0
0
0
0
0
0
0
0
0
0
0
0
0
0
0
0
0
0
0
0
0
0
0
0
0
0
0
0
0
0
0
0
0
0
0
0
0
0
0
0
0
0
0
0
0
0
0
0
0
0
0
0
0
0
0
0
0
0
0
0
0
0
0
0
0
0
0
0
0
0
0
0
0
0
0
0
0
0
0
0
0
0
0
0
0
0
0
0
0
0
0
0
0
0
0
0
0
0
0
0
0
0
0
0
0
0
0
0
0
0
0
0
0
0
0
0
0
0
0
0
0
0
0
0
0
0
0
0
0
0
0
0
0
0
0
0
0
0
0
0
0
0
0
0
0
0
0
0
0
0
0
0
0
0
0
0
0
0
0
0
0
0
0
0
0
0
0
0
0
0
0
0
0
0
0
0
0
0
0
0
0
0
0
0
0
0
0
0
0
0
0
0
0
0
0
0
0
0
0
0
0
0
0
0
0
0
0
0
0
0
0
0
0
0
0
0
0
0
0
0
0
0
0
0
0
0
0
0
0
0
0
0
0
0
0
0
0
0
0
0
0
0
0
0
0
0
0
0
0
0
0
0
0
0
0
0
0
0
0
0
0
0
0
0
0
0
0
0
0
0
0
0
0
0
0
0
0
0
0
0
0
0
0
0
0
0
0
0
0
0
0
0
0
0
0
0
0
0
0
0
0
0
0
0
0
0
0
0
0
0
0
0
0
0
0
0
0
0
0
0
0
0
0
0
0
0
0
0
0
0
0
0
0
0
0
0
0
0
0
0
0
0
0
0
0
0
0
0
0
0
0
0
0
0
0
0
0
0
0
0
0
0
0
0
0
0
0
0
0
0
0
0
0
0
0
0
0
0
0
0
0
0
0
0
0
0
0
0
0
0
0
0
0
0
0
0
0
0
0
0
0
0
0
0
0
0
0
0
0
0
0
0
0
0
0
0
0
0
0
0
0
0
0
0
0
0
0
0
0
0
0
0
0
0
0
0
0
0
0
0
0
0
0
0
0
0
0
0
0
0
0
0
0
0
0
0
0
0
0
0
0
0
0
0
0
0
0
0
0
0
0
0
0
0
0
0
0
0
0
0
0
0
0
0
0
0
0
0
0
0
0
0
0
0
0
0
0
0
0
0
0
0
0
0
0
0
0
0
0
0
0
0
0
0
0
0
0
0
0
0
0
0
0
0
0
0
0
0
0
0
0
0
0
0
0
0
0
0
0
0
0
0
0
0
0
0
0
0
0
0
0
0
0
0
0
0
0
0
0
0
0
0
0
0
0
0
0
0
0
0
0
0
0
0
0
0
0
0
0
0
0
0
0
0
0
0
0
0
0
0
0
0
0
0
0
0
0
0
0
0
0
0
0
0
0
0
0
0
0
0
0
0
0
0
0
0
0
0
0
0
0
0
0
0
0
0
0
0
0
0
0
0
0
0
0
0
0
0
0
0
0
0
0
0
0
0
0
0
0
0
0
0
0
0
0
0
0
0
0
0
0
0
0
0
0
0
0
0
0
0
0
0
0
0
0
0
0
0
0
0
0
0
0
0
0
0
0
0
0
0
0
0
0
0
0
0
0
0
0
0
0
0
0
0
0
0
0
0
0
0
0
0
0
0
0
0
0
0
0
0
0
0
0
0
0
0
0
0
0
0
0
0
0
0
0
0
0
0
0
0
0
0
0
0
0
0
0
0
0
0
0
0
0
0
0
0
0
0
0
0
0
0
0
0
0
0
0
0
0
0
0
0
0
0
0
0
0
0
0
0
0
0
0
0
0
0
0
0
0
0
0
0
0
0
0
0
0
0
0
0
0
0
0
0
0
0
0
0
0
0
0
0
0
0
0
0
0
0
0
0
0
0
0
0
0
0
0
0
0
0
0
0
0
0
0
0
0
0
0
0
0
0
0
0
0
0
0
0
0
0
0
0
0
0
0
0
0
0
0
0
0
0
0
0
0
0
0
0
0
0
0
0
0
0
0
0
0
0
0
0
0
0
0
0
0
0
0
0
0
0
0
0
0
0
0
0
0
0
0
0
0
0
0
0
0
0
0
0
0
0
0
0
0
0
0
0
0
0
0
0
0
0
0
0
0
0
0
0
0
0
0
0
0
0
0
0
0
0
0
0
0
0
0
0
0
0
0
0
0
0
0
0
0
0
0
0
0
0
0
0
0
0
0
0
0
0
0
0
0
0
0
0
0
0
0
0
0
0
0
0
0
0
0
0
0
0
0
0
0
0
0
0
0
0
0
0
0
0
0
0
0
0
0
0
0
0
0
0
0
0
0
0
0
0
0
0
0
0
0
0
0
0
0
0
0
0
0
0
0
0
0
0
0
0
0
0
0
0
0
0
0
0
0
0
0
0
0
0
0
0
0
0
0
0
0
0
0
0
0
0
0
0
0
0
0
0
0
0
0
0
0
0
0
0
0
0
0
0
0
0
0
0
0
0
0
0
0
0
0
0
0
0
0
0
0
0
0
0
0
0
0
0
0
0
0
0
0
0
0
0
0
0
0
0
0
0
0
0
0
0
0
0
0
0
0
0
0
0
0
0
0
0
0
0
0
0
0
0
0
0
0
0
0
0
0
0
0
0
0
0
0
0
0
0
0
0
0
0
0
0
0
0
0
0
0
0
0
0
0
0
0
0
0
0
0
0
0
0
0
0
0
0
0
0
0
0
0
0
0
0
0
0
0
0
0
0
0
0
0
0
0
0
0
0
0
0
0
0
0
0
0
0
0
0
0
0
0
0
0
0
0
0
0
0
0
0
0
0
0
0
0
0
0
0
0
0
0
0
0
0
0
0
0
0
0
0
0
0
0
0
0
0
0
0
0
0
0
0
0
0
0
0
0
0
0
0
0
0
0
0
0
0
0
0
0
0
0
0
0
0
0
0
0
0
0
0
0
0
0
0
0
0
0
0
0
0
0
0
0
0
0
0
0
0
0
0
0
0
0
0
0
0
0
0
0
0
0
0
0
0
0
0
0
0
0
0
0
0
0
3.697367706030152216930126e-32
3.066729105574766825680356e-30
1.188746135236825900405599e-28
2.626711078831753679384092e-27
3.688391266225454814467521e-26
7.513222155039340682082496e-25
3.566274230795601937251342e-23
1.114343401438282923273424e-21
1.877315658670597545651739e-20
2.091489006845826204949055e-19
2.156241512725746865455873e-18
1.140809445203137495536626e-17
6.64880462868692567883159e-16
6.589395246318528162813555e-16
6.48729414537841301843522e-16
6.350742371562627445984334e-16
6.180220890087552031401946e-16
5.975557876014531924134531e-16
5.739353654921202853814306e-16
5.475767905376742825050538e-16
5.183273757724571962085572e-16
4.847520162007251544457032e-16
4.443734862370292769909306e-16
3.953598676662311890411445e-16
3.395340278283749694442341e-16
2.840667155844498858889246e-16
2.366849496840529031346108e-16
1.982399086615095372442711e-16
1.643277331733204065130748e-16
1.33446051099302323625696e-16
1.107061296224024684280216e-16
9.79606067756108302598117e-17
8.8506592279990285012625e-17
7.212855401485941012560244e-17
3.756284675493401994335744e-17
1.63832248177118332865284e-17
1.762839478244465648456684e-17
4.780546977962942232972275e-17
2.520146852699985620741616e-16
1.267028771342701239471943e-15
5.321686836053181845576926e-15
1.823590709139591448840968e-14
4.835520767021525954721118e-14
8.799180862432019846877283e-14
1.012800975054385427363076e-13
5.409042402326846758757227e-14
4.170863366258393559072446e-15
1.286733981475330799766446e-17
3.562365860241168119699497e-22
1.526447548996351328392145e-27
9.813217590493274050529198e-33
4.521557861475634588356227e-38
2.101926629874769809706332e-43
1.284814599117150325652156e-48
6.105331801450897564976828e-54
3.004156889201232818239018e-59
1.781683059233978804518876e-64
8.726563651606282525783795e-70
4.487960906754412432121882e-75
2.628075598479607196709318e-80
1.335894671999625563785435e-85
7.134829736508490691933208e-91
4.13140071684323191439383e-96
2.18063418732548945421e-101
1.189324807641171310116375e-106
6.779975181244385012033397e-112
3.6683479578705635979859e-117
2.019896545198761248313694e-122
1.141802430236439620440492e-127
6.260325261198289671006853e-133
3.45997339550854891372977e-138
1.949342282037236753405045e-143
1.376618099982996403204191e-148
7.00628235598336555114553e-150
1.31381687572292047264984e-150
2.441911508868661506564546e-151
4.670381746600123399748471e-152
9.128320244449794617955305e-153
1.844946188799526959264906e-153
3.926830293542562052446112e-154
8.957446802183227577758894e-155
2.215326060094425828982252e-155
5.932624408985449699048419e-156
1.694079749388426882080927e-156
5.038727648279630871996579e-157
1.524824242044516061910927e-157
4.607775485919790853686894e-158
1.372273723359740072982048e-158
3.993741434859001398307317e-159
1.129867281714593275511694e-159
3.097545698965340158931328e-160
8.214162348492404281082203e-161
2.104931760304166193942305e-161
5.210055696415222858130202e-162
1.245430490706045234283435e-162
2.875430177532023473276003e-163
6.413315298241955163458477e-164
1.382242200665628338776457e-164
2.879742764831930111668403e-165
5.801612732276646331369624e-166
1.130658991359140537663325e-166
2.132383500312486242099251e-167
3.893231744087380034105234e-168
6.883710791134326837811681e-169
1.179106159230540457936678e-169
1.957245053943040103698507e-170
3.149464025564066651175804e-171
4.914249693585083795636943e-172
7.437544820264500200244911e-173
1.092117085551277712898211e-173
1.556267553334176488502246e-174
2.152662463610632797369983e-175
2.890935920174181785535689e-176
3.770156074537434120184592e-177
4.775506388312639984241466e-178
5.876155167100141864933927e-179
7.025043887749533221989956e-180
8.161104434078231403882349e-181
9.21401972311397144234544e-182
1.011113809474981777683554e-182
1.078565089124384468734795e-183
1.118477441222062215871783e-184
1.127655189158674855213391e-185
1.105406281197993577295445e-186
1.053627328280786258285678e-187
9.76538468932120231101981e-189
8.801191321685503074653044e-190
7.713486677658376780846565e-191
6.573844601451914717715307e-192
5.448095457973503940830475e-193
4.390546609488524345456781e-194
3.440550953516284256698132e-195
2.621529063778927051900396e-196
1.942116237577414096801678e-197
1.398817209851236421093433e-198
9.794403003419080064478812e-200
6.666331491236307269499552e-201
4.410044683431688531642266e-202
2.835279437900188131201529e-203
1.771289290042903156441499e-204
1.075132529894372367259257e-205
6.339361653431011266818932e-207
3.630496817826997855782414e-208
2.019032137126211579826928e-209
1.090159664367819495303881e-210
5.713641083062223447821114e-212
2.906102762535103605636153e-213
1.434088608623131576099956e-214
6.864235610227112908283519e-216
3.185926151212779499516144e-217
1.433422779561423004959606e-218
6.249811205804751333564681e-220
2.639752053330793427257813e-221
1.079699422140279503328515e-222
4.274798066285338095463582e-224
1.637645492673965558364167e-225
6.067679897549955116592686e-227
2.173293880294216340651068e-228
7.521226070654891742410147e-230
2.51362498417169855774299e-231
8.107858295205991167320628e-233
2.52256052439956237905878e-234
7.56528559375634369704363e-236
2.185531263126868080055492e-237
6.07737429774443480008464e-239
1.62539683486546515846043e-240
4.177538338613406993245632e-242
1.030874951646259187083137e-243
2.440024591148821087917049e-245
5.533904968560324138315917e-247
1.201241387898065768815961e-248
2.492661528742044602748709e-250
4.938116903112714664507024e-252
9.326257217492318535933543e-254
1.676605601773293793570831e-255
2.86418697479588197807816e-257
4.641091802228826927918007e-259
7.11887409147624613794849e-261
1.031359887221580302671992e-262
1.407830029981889705464038e-264
1.805701710338043958767811e-266
2.169569471291813484243869e-268
2.433576398958413635302504e-270
2.538498601834782611787073e-272
2.451603679094651061313161e-274
2.181010745792821215531998e-276
1.776786544700138335799272e-278
1.316340051280233332261902e-280
8.795547363148635535310562e-283
5.24764112536006978269695e-285
2.761116740378509443875934e-287
1.261222796035420291140648e-289
4.89931363605951888486813e-292
1.573561424235869030188012e-294
4.011526242240250650402534e-297
7.609979792108291579388886e-300
9.548820036112397954965462e-303
5.943797160345519687927646e-306
0
0
0
0
0
0
0
0
0
0
0
0
0
0
0
0
0
0
0
0
0
0
0
0
0
0
0
0
0
0
0
0
0
0
0
0
0
0
0
0
0
0
0
0
0
0
0
0
0
0
0
0
0
0
0
0
0
0
0
0
0
0
0
0
0
0
0
0
0
0
0
0
0
0
0
0
0
0
0
0
0
0
0
0
0
0
0
0
0
0
0
0
0
0
0
0
0
0
0
0
0
0
0
0
0
0
0
0
0
0
0
0
0
0
0
0
0
0
0
0
0
0
0
0
0
0
0
0
0
0
0
0
0
0
0
0
0
0
0
0
0
0
0
0
0
0
0
0
0
0
0
0
0
0
0
0
0
0
0
0
0
0
0
0
0
0
0
0
0
0
0
0
0
0
0
0
0
0
0
0
0
0
0
0
0
0
0
0
0
0
0
0
0
0
0
0
0
0
0
0
0
9.658751103432237259732342e-33
3.094741303313634153423835e-30
2.185131349344108977911243e-28
8.085771263856009492361964e-27
2.060876571730249266407996e-25
3.518159040908980039963353e-24
4.607911623248947169686984e-23
8.457365942086506370263622e-22
1.786117786112789024432385e-20
4.850902669407840553997914e-19
1.001067265457943962651532e-17
1.66959629246330646033693e-16
1.103278110760537443911366e-15
4.95215300485439843090989e-14
4.940709707759728730005765e-14
4.90245057967774451282789e-14
4.825210467646317291904767e-14
4.702288370471733093915885e-14
4.525745836956344702795279e-14
4.277400816406854831851895e-14
3.933322686216268834197259e-14
3.487981944054992415478699e-14
2.981047740361914598852476e-14
2.485384668170747794932064e-14
2.057708310530005400409975e-14
1.715964992179656710489106e-14
1.449756242024427709470303e-14
1.22686327779383493242604e-14
1.009578178286935356324086e-14
7.989121180750537769975946e-15
6.518196874693282856057553e-15
5.810621614011422632317111e-15
5.334313221039359651757539e-15
4.448000323483801094965876e-15
2.359409215540009168813155e-15
1.027552164877116087353608e-15
1.20016720831456756013873e-15
4.783155561970769602306648e-15
3.395720713342906234528497e-14
2.054669685239177141922579e-13
9.087505862541081506129897e-13
2.647812771266796358506399e-12
4.639104379163481533525708e-12
5.039534310514580838354951e-12
2.450234666170469793974333e-12
2.475724697431184108645296e-13
1.297820687591933582661384e-14
3.163980259644136013499331e-16
4.684796901962619099305804e-19
7.267379665557127451608368e-24
6.132978930797379018274362e-29
3.67686910603120626744895e-34
1.964939423105223422825824e-39
1.378200606556015699853552e-44
7.673782520634800800912588e-50
4.207843042057356807378118e-55
2.728361836683346313748964e-60
1.499401915801953179065557e-65
8.405082763302651230613574e-71
5.253611444749118200684519e-76
2.918805153492412422626099e-81
1.669726448835611646194414e-86
1.020582207214553002413729e-91
5.776730565382949278825079e-97
3.336011760398013305987364e-102
1.997994971743951145852708e-107
1.144641055659022250485516e-112
6.623621518866802477398267e-118
3.917199279002876136664337e-123
2.255678953008108924839082e-128
1.30446709764220211674489e-133
7.671762039923884962190798e-139
4.452710545194531668803074e-144
6.525968576133269246158658e-149
8.807752702217898591035548e-150
2.015719549918991086176171e-150
4.618573681370490765750039e-151
1.062455492132092155217848e-151
2.48353741858961702020099e-152
6.042128679158216609341334e-153
1.561696772185380010552949e-153
4.338023561870344487808634e-154
1.290910942035773705694032e-154
4.046620367589294598976239e-155
1.305764209810907888854837e-155
4.244427187754358417846681e-156
1.36704147207159880565666e-156
4.314195274644873497549197e-157
1.324713981078673499657411e-157
3.94114596101581130113149e-158
1.133333502736788031377326e-158
3.146092404711673692542138e-159
8.42573603110442696200356e-160
2.17668722976367082292974e-160
5.424743206325902608756969e-161
1.304578489086904195388159e-161
3.02847362987067070404673e-162
6.789198261905131567231874e-163
1.470432564756203325679978e-163
3.078216250615389897105545e-164
6.2312570355714396078585e-165
1.220299028597202059834839e-165
2.312899504451802992447798e-166
4.244494568869706623397739e-167
7.544751641531408454420793e-168
1.299500544564663876408185e-168
2.169576369587585730878122e-169
3.512257695385194362852235e-170
5.515037090082140292259758e-171
8.402154491794863260529489e-172
1.242323286649113961103493e-172
1.783175888977663506339479e-173
2.485282182242551571873881e-174
3.364172986713643289701798e-175
4.423786222710832000279519e-176
5.65208209774223600451903e-177
7.017784788278349631236519e-178
8.469177592994488600007105e-179
9.935693845328029993963729e-180
1.133263907770068342144157e-180
1.256880722792755276174691e-181
1.355613068740613353583981e-182
1.421998109114346258968055e-183
1.450845956782263365063254e-184
1.439907617993331549146144e-185
1.390162964460718883542205e-186
1.305677859969634852081975e-187
1.193058973056250252055647e-188
1.060607036132841019711776e-189
9.173179635149024446264341e-191
7.718965563484101224494162e-192
6.31928682061773110126268e-193
5.033124537706776455560829e-194
3.899902413514723530638934e-195
2.939659069603498699777936e-196
2.155474657191058116535736e-197
1.537311877997258183979078e-198
1.066397876311008535605535e-199
7.194068605180771595732569e-201
4.719350754635642838889629e-202
3.010170863209754264914455e-203
1.86657063168288172439367e-204
1.125069854419472284637392e-205
6.590642760745116733927039e-207
3.751583409054936670485043e-208
2.074717691986712997689129e-209
1.114483077921609077398523e-210
5.813849020473426801351889e-212
2.944615164123465891032525e-213
1.447635694921088991532748e-214
6.906209853573802339313694e-216
3.196287619057676738908688e-217
1.43464693954324755760734e-218
6.243039415789635411810175e-220
2.632985825203844152703047e-221
1.075826420976898476715151e-222
4.257029973904295770212614e-224
1.630649939863420751648894e-225
6.043819360129453444203875e-227
2.16647572083598628531841e-228
7.507055334253330471556372e-230
2.513197919228453988674766e-231
8.124149656558932336659069e-233
2.534311928220517037533346e-234
7.624170713814932066810115e-236
2.210427725861277116895569e-237
6.17151419450439533645652e-239
1.658049304572540525686979e-240
4.282803450525097288325544e-242
1.062655416457193924245747e-243
2.53029087832084467814875e-245
5.775782054681664372456865e-247
1.262488975029466116166769e-248
2.639347999406062015680835e-250
5.270493395943222828935518e-252
1.003869595491931874687462e-253
1.82098947426891641315948e-255
3.140613716003198763514909e-257
5.140479934248472169582679e-259
7.968982531226596712370119e-261
1.167486467905915949445694e-262
1.612458483344839009344192e-264
2.093787826643901369369485e-266
2.548388375057588784972987e-268
2.897379041091346819212134e-270
3.06531223403701563140829e-272
3.004426044588691124236651e-274
2.714350374584835924832798e-276
2.247147551103665884378011e-278
1.692983505168943484350664e-280
1.151185481143732199355664e-282
6.99462011061051798993585e-285
3.750881259386790811488431e-287
1.747559995887589614743877e-289
6.929849910560018517569525e-292
2.274007094809972728001785e-294
5.92822395404719190226764e-297
1.151092831780271780786455e-299
1.479833999233275167843987e-302
9.447347186626287871840874e-306
0
0
0
0
0
0
0
0
0
0
0
0
0
0
0
0
0
0
0
0
0
0
0
0
0
0
0
0
0
0
0
0
0
0
0
0
0
0
0
0
0
0
0
0
0
0
0
0
0
0
0
0
0
0
0
0
0
0
0
0
0
0
0
0
0
0
0
0
0
0
0
0
0
0
0
0
0
0
0
0
0
0
0
0
0
0
0
0
0
0
0
0
0
0
0
0
0
0
0
0
0
0
0
0
0
0
0
0
0
0
0
0
0
0
0
0
0
0
0
0
0
0
0
0
0
0
0
0
0
0
0
0
0
0
0
0
0
0
0
0
0
0
0
0
0
0
0
0
0
0
0
0
0
0
0
0
0
0
0
0
0
0
0
0
0
0
0
0
0
0
0
0
0
0
0
0
0
0
0
0
0
0
0
0
0
0
0
0
0
0
0
0
0
0
0
0
0
0
0
1.543788396277783926000963e-33
5.204930900936607610403615e-31
8.971227472262979088239717e-29
5.956719811835982334970022e-27
2.251624065844476987984829e-25
5.643402463048533660938104e-24
9.898317085980892327413432e-23
1.402931253165359710015496e-21
1.858986803341782573980716e-20
2.240838701274119264056571e-19
4.276455703900943896564657e-18
9.779035059832982659874133e-17
2.440966958590424736885447e-15
1.492200942158844930975673e-14
1.062497928077291188741939e-12
1.110123114879612121749771e-12
1.11184247064214944588574e-12
1.110728421769463034273149e-12
1.096056902217556015198949e-12
1.047468825531089845153376e-12
9.613012464390343836599647e-13
8.523088171740561987396228e-13
7.366215445223692220585724e-13
6.261230470669776985114128e-13
5.288233659317411151747387e-13
4.46811523251191816945892e-13
3.763205410488152714521757e-13
3.103000229295641144984054e-13
2.449333554552915944487066e-13
1.922340890133020320561755e-13
1.646123352951785304535862e-13
1.527727371665427189727728e-13
1.434110665029280987395366e-13
1.225527941555008242319622e-13
6.925331447121582988764525e-14
2.868361023698557694276962e-14
2.902685994239992717868586e-14
9.661597444383902155504194e-14
9.106504939236193181300393e-13
7.931779582922336161861845e-12
4.09681561756973984815667e-11
9.375235907491759057221883e-11
1.050269626854493301650181e-10
5.704576955022930525306603e-11
8.434728537109494728427799e-12
7.011965764028580533437513e-13
2.906610436358167810377642e-14
2.486219719399136628383431e-16
8.601232946682915366678983e-19
2.435430799553931459344045e-22
3.641073189320140776477808e-27
2.928132952258232100228144e-32
2.341840038237366852521332e-37
2.71130074840880624274552e-42
1.665427536532030043168483e-47
1.219970295751930907376823e-52
1.115264923686726351584406e-57
6.49801411206031323190976e-63
4.621846971342992801280115e-68
3.692181854820174379477837e-73
2.156513074620161599794357e-78
1.496978229504464891777065e-83
1.094169334292369787735384e-88
6.554118023608445560567849e-94
4.396273855669796041378513e-99
3.019589081030899276753569e-104
1.852903897742897140845618e-109
1.207188521784193161904979e-114
7.992647225998134087122487e-120
4.947628933838825001439695e-125
3.164078754259701087768383e-130
2.062344310596146618957811e-135
1.296213789931999872861711e-140
8.379900554997857407314691e-146
4.005173436549087218515324e-149
8.297126525586500925492626e-150
2.20736773150221881514083e-150
5.996571373013109662429912e-151
1.633099785084125329970852e-151
4.576539103898540319964998e-152
1.348334457347763854321999e-152
4.220985261030477091168132e-153
1.397061503229577784336772e-153
4.804364400566828742144663e-154
1.679822300293379660817592e-154
5.858290019925859162504186e-155
2.009325838369763646897352e-155
6.715797831676385160594191e-156
2.175064547999940065867482e-156
6.804126073804608533197479e-157
2.052345275789079178206379e-157
5.964308735854177887863952e-158
1.669549083383977769940559e-158
4.50207532505490651767719e-159
1.169860075587845776075978e-159
2.930536135211642860083463e-160
7.0805169357130937000521e-161
1.650874656886276229123574e-161
3.716426586420955928447509e-162
8.082190056225564639478484e-163
1.69882729994717783187213e-163
3.453053380753827668538202e-164
6.79046721826167690032923e-165
1.292519709427497980471698e-165
2.382345632282722471573128e-166
4.253842046397048873657868e-167
7.360985220291702383295916e-168
1.234888696408909715555665e-168
2.009124333557309758729787e-169
3.171127123645978439923603e-170
4.857135678991452152013857e-171
7.221542785137837206387159e-172
1.042505094746627499945297e-172
1.461612545205464297326811e-173
1.990637179278963311272678e-174
2.634209861753147376716809e-175
3.387604394562059533553303e-176
4.234459263098073478546178e-177
5.145630148326890218199885e-178
6.079678100311546527271483e-179
6.985282453217887657714528e-180
7.805536251732250287717413e-181
8.483696902812119751670213e-182
8.969614343827488579381174e-183
9.225835745276738328416972e-184
9.23235905414485118662091e-185
8.989200736557349205694385e-186
8.516322342038596121990692e-187
7.85094224532832335255584e-188
7.042731569506676272225991e-189
6.147748665573553419882129e-190
5.222129609471275790063892e-191
4.316500035475882041196759e-192
3.471837861216992753790903e-193
2.717169705915957040707245e-194
2.069115889211719372827077e-195
1.532991208441855708711876e-196
1.104974707881430942192015e-197
7.74798489469727230155496e-199
5.284570719534664926242057e-200
3.505667372143850188634274e-201
2.261631939855486184723521e-202
1.418757341022377208506332e-203
8.653034930562892515442568e-205
5.130224811018980505532587e-206
2.95623896194800869327387e-207
1.655386574814713712168934e-208
9.005988486631220897152132e-210
4.759313045072671089294816e-211
2.442531910404425898667648e-212
1.217067090293152409378221e-213
5.886471573229238092144241e-215
2.76275413463067272654802e-216
1.257907074987691900574698e-217
5.554413420229449609346711e-219
2.377752400652280910729508e-220
9.864614737805705075713093e-222
3.964745389088631736148585e-223
1.543115779279496284419691e-224
5.813601589365531654236125e-226
2.119139507342947540293032e-227
7.470214592102663533811439e-229
2.545332308022834174296888e-230
8.378348744368363661805634e-232
2.662714289514191945131454e-233
8.165381065048032847512082e-235
2.414517326283190906950914e-236
6.879924794229880438957165e-238
1.887616719079001122960883e-239
4.982829022263856101725852e-241
1.264449727644943458777039e-242
3.081738738226360559957405e-244
7.206682729794470714389736e-246
1.615346074663050868335096e-247
3.466546118290448321370904e-249
7.113804500979340201937949e-251
1.394152137987317303398905e-252
2.605577492990030380464786e-254
4.636737254731573845434658e-256
7.843408587690567098207196e-258
1.258874563998234517106929e-259
1.913240666599591291719085e-261
2.74727535833245996707542e-263
3.71804208308994596605434e-265
4.729571115908126786760225e-267
5.6376999950069299610472e-269
6.27579558480330606738341e-271
6.498917972809439807345389e-273
6.233073026998564204749164e-275
5.508687277667686276002394e-277
4.459826921519544246515691e-279
3.284743226125982824649421e-281
2.18277816171747864606015e-283
1.295663995361276401520051e-285
6.785295149778050558493087e-288
3.086117846744358058846004e-290
1.194211855793374643633944e-292
3.822545763759068052037901e-295
9.716473934379204864926964e-298
1.838784486224687636200037e-300
2.30290446231189887689743e-303
1.431573481024749325933887e-306
0
0
0
0
0
0
0
0
0
0
0
0
0
0
0
0
0
0
0
0
0
0
0
0
0
0
0
0
0
0
0
0
0
0
0
0
0
0
0
0
0
0
0
0
0
0
0
0
0
0
0
0
0
0
0
0
0
0
0
0
0
0
0
0
0
0
0
0
0
0
0
0
0
0
0
0
0
0
0
0
0
0
0
0
0
0
0
0
0
0
0
0
0
0
0
0
0
0
0
0
0
0
0
0
0
0
0
0
0
0
0
0
0
0
0
0
0
0
0
0
0
0
0
0
0
0
0
0
0
0
0
0
0
0
0
0
0
0
0
0
0
0
0
0
0
0
0
0
0
0
0
0
0
0
0
0
0
0
0
0
0
0
0
0
0
0
0
0
0
0
0
0
0
0
0
0
0
0
0
0
0
0
0
0
0
0
0
0
0
0
0
0
0
0
0
0
0
0
8.18836517870927822097791e-32
1.531887637170304694294502e-29
1.651209092179937396376109e-27
9.818670543473033828370192e-26
3.472573395203868992603499e-24
8.093913473031934198848449e-23
1.418884171044891769929134e-21
2.17399841566166272015617e-20
3.11296624872012126073658e-19
3.692658700292201225361876e-18
4.03199157803735980190818e-17
5.632954103112637469968621e-16
7.971408045821878925167604e-15
7.06847786214921424565175e-14
2.162449609533034205363446e-11
2.171903011001062000278578e-11
2.125268738986272842439005e-11
1.974937312379139428484632e-11
1.742644289593202254915113e-11
1.494397264696731000387611e-11
1.272780041975123224635455e-11
1.081663832428763925094307e-11
9.189198337395969832082766e-12
7.888889703805179604243503e-12
6.84641510231281660325105e-12
5.86457755241293899689851e-12
4.782683754266264907077553e-12
3.574297458536387567889017e-12
2.757217547123770667898342e-12
2.60080219387207440905346e-12
2.600196275683348159364128e-12
2.591354679854307135066374e-12
2.336465922895441394340153e-12
1.318888264011408879437008e-12
6.070469329109825766037717e-13
5.973315221368016645971714e-13
1.429895340966237278733076e-12
1.226738484283100592181391e-11
1.334442506342466196541617e-10
7.631560148462931028053167e-10
1.191166983079778628048666e-09
8.003295079571985384417265e-10
1.750508361981273830052255e-10
2.055286128431096556262187e-11
1.293652329073128187838844e-12
2.161803898496021214436386e-14
1.419154489779536624813065e-16
1.292791015262226441275976e-19
3.547016864193953380500896e-23
1.361860905478181549689059e-27
1.861714826439036777533391e-32
2.166378009500596274871312e-37
4.569469649986028462133718e-42
3.183507639729109854341476e-47
3.643157810235518128576222e-52
5.711653456748143569520046e-57
3.528783618568068559229502e-62
3.653316727694848643966917e-67
4.30365143701556884146512e-72
2.649896170297454012530146e-77
2.489453547343718546305276e-82
2.411441219319740944699661e-87
1.548509564094964425728544e-92
1.309229047827942724089815e-97
1.113893309115261254928648e-102
7.514217238780962574764947e-108
5.870865698539125369409136e-113
4.631569229276924301256024e-118
3.182653952481518647525889e-123
2.375193386356983730122096e-128
1.817420869540323729342557e-133
1.289462084500348064252114e-138
9.748222343435062406579912e-144
1.306329049846716575108248e-148
2.567357156559047893772417e-149
7.243795709616278639810928e-150
2.242588767605511904625059e-150
7.087001685307585397441209e-151
2.291773175806282941972711e-151
7.712703737649921376623805e-152
2.722303351827788739829722e-152
1.000879382024017576456214e-152
3.768037601757201092194914e-153
1.424590336128223233434867e-153
5.321196708717665245195027e-154
1.941106777985869133488819e-154
6.864624583932355194452671e-155
2.343339595921908878180483e-155
7.703508277118850011173766e-156
2.436100261845907542497065e-156
7.407941007438505391531372e-157
2.166364351996669599235127e-157
6.094618085403192915328716e-158
1.650275958522560320322025e-158
4.303388036683292657676199e-159
1.081367323532555233684669e-159
2.620078839570378570357285e-160
6.124927460658301359133677e-161
1.382271088583336411717446e-161
3.013296785215174198454135e-162
6.348728600350306127007895e-163
1.293468468573520355359443e-163
2.54956013239419591835515e-164
4.864286880893088749522413e-165
8.986903968696614342898899e-166
1.608492995433008156678155e-166
2.790079803757982376775972e-167
4.692045314154628881900518e-168
7.652539892432844823593963e-169
1.210840577379613499551784e-169
1.859247761649123419978841e-170
2.771269386397630089337937e-171
4.010747211638421518703607e-172
5.637451494105173663424414e-173
7.697498309900934647952513e-174
1.021213612867801006792233e-174
1.316642052663453554856625e-175
1.649985578883318551254234e-176
2.01013178115349607780498e-177
2.381032034599417834492065e-178
2.742587978551983337089032e-179
3.072295064616211669597479e-180
3.347487683836098786279166e-181
3.547887802318904012679195e-182
3.65806378824777978614937e-183
3.66938725587962366042042e-184
3.581144626848873618899173e-185
3.400605515417470044494115e-186
3.1420401695905844423825e-187
2.824869036926839382240355e-188
2.471275168540525566267848e-189
2.103682993342453587489084e-190
1.742493730532443149217883e-191
1.404379130562586497454325e-192
1.101299252661864065837932e-193
8.402623516794916335768936e-195
6.237188957894090123781926e-196
4.503998630324327094696566e-197
3.163798972688863832577463e-198
2.161631563464393795123394e-199
1.436390012950801728716273e-200
9.281785336281435511913224e-202
5.831822577604157724010047e-203
3.562299871648493070769366e-204
2.115164743506275569803321e-205
1.220601480631703280515315e-206
6.844505214827255674100202e-208
3.728765678876635719043811e-209
1.973118044484098731113499e-210
1.013933578341002529550736e-211
5.058608995169630136411635e-213
2.449669513073100966643594e-214
1.151120701947580343874922e-215
5.247418066276158249760724e-217
2.319787643767026550613014e-218
9.94228826219862589036019e-220
4.129608022259630987694362e-221
1.661709082687826943401523e-222