/*--------------------------------*- C++ -*----------------------------------*\
| =========                 |                                                 |
| \\      /  F ield         | OpenFOAM: The Open Source CFD Toolbox           |
|  \\    /   O peration     | Version:  v2012                                 |
|   \\  /    A nd           | Website:  www.openfoam.com                      |
|    \\/     M anipulation  |                                                 |
\*---------------------------------------------------------------------------*/
FoamFile
{
    version     2.0;
    format      ascii;
    class       volScalarField;
    location    "1.8";
    object      alpha.water;
}
// * * * * * * * * * * * * * * * * * * * * * * * * * * * * * * * * * * * * * //

dimensions      [0 0 0 0 0 0 0];


internalField   nonuniform List<scalar> 
96000
(
0
0
0
0
0
0
0
0
0
0
0
0
0
0
0
0
0
0
0
0
0
0
0
0
0
0
0
0
0
0
0
0
0
0
0
0
0
0
0
0
0
0
0
0
0
0
0
0
0
0
0
0
0
0
0
0
0
0
0
0
0
0
0
0
0
0
0
0
0
0
0
0
0
0
0
0
0
0
0
0
0
0
0
0
0
0
0
0
0
0
0
0
0
0
0
0
0
0
0
0
0
0
0
0
0
0
0
0
0
0
0
0
0
0
0
0
0
0
0
0
0
0
0
0
0
0
0
0
0
0
0
0
0
0
0
0
0
0
0
0
0
0
0
0
0
0
0
0
0
0
0
0
0
0
0
0
0
0
0
0
0
0
0
0
0
0
0
0
0
0
0
0
0
0
0
0
0
0
0
0
0
0
0
0
0
0
0
0
0
0
0
0
0
0
0
0
0
0
0
0
0
0
0
0
0
0
0
0
0
0
0
0
0
0
0
0
0
0
0
0
0
0
0
0
0
0
0
0
0
0
0
0
0
0
0
0
0
0
0
0
0
0
0
0
0
0
0
0
0
0
0
0
0
0
0
0
0
0
0
0
0
0
0
0
0
0
0
0
0
0
0
0
0
0
0
0
0
0
0
0
0
0
0
0
0
0
0
0
0
0
0
0
0
0
0
0
0
0
0
0
0
0
0
0
0
0
0
0
0
0
0
0
0
0
0
0
0
0
0
0
0
0
0
0
0
0
0
0
0
0
0
0
0
0
0
0
0
0
0
0
0
0
0
0
0
0
0
0
0
0
0
0
0
0
0
0
0
0
0
0
0
0
0
0
0
0
0
0
0
0
0
0
0
0
0
0
0
0
0
0
0
0
0
0
0
0
0
0
0
0
0
0
0
0
0
0
0
0
0
0
0
0
0
0
0
0
0
0
0
0
0
0
0
0
0
0
0
0
0
0
0
0
0
0
0
0
0
0
0
0
0
0
0
0
0
0
0
0
0
0
0
0
0
0
0
0
0
0
0
0
0
0
0
0
0
0
0
0
0
0
0
0
0
0
0
0
0
0
0
0
0
0
0
0
0
0
0
0
0
0
0
0
0
0
0
0
0
0
0
0
0
0
0
0
0
0
0
0
0
0
0
0
0
0
0
0
0
0
0
0
0
0
0
0
0
0
0
0
0
0
0
0
0
0
0
0
0
0
0
0
0
0
0
0
0
0
0
0
0
0
0
0
0
0
0
0
0
0
0
0
0
0
0
0
0
0
0
0
0
0
0
0
0
0
0
0
0
0
0
0
0
0
0
0
0
0
0
0
0
0
0
0
0
0
0
0
0
0
0
0
0
0
0
0
0
0
0
0
0
0
0
0
0
0
0
0
0
0
0
0
0
0
0
0
0
0
0
0
0
0
0
0
0
0
0
0
0
0
0
0
0
0
0
0
0
0
0
0
0
0
0
0
0
0
0
0
0
0
0
0
0
0
0
0
0
0
0
0
0
0
0
0
0
0
0
0
0
0
0
0
0
0
0
0
0
0
0
0
0
0
0
0
0
0
0
0
0
0
0
0
0
0
0
0
0
0
0
0
0
0
0
0
0
0
0
0
0
0
0
0
0
0
0
0
0
0
0
0
0
0
0
0
0
0
0
0
0
0
0
0
0
0
0
0
0
0
0
0
0
0
0
0
0
0
0
0
0
0
0
0
0
0
0
0
0
0
0
0
0
0
0
0
0
0
0
0
0
0
0
0
0
0
0
0
0
0
0
0
0
0
0
0
0
0
0
0
0
0
0
0
0
0
0
0
0
0
0
0
0
0
0
0
0
0
0
0
0
0
0
0
0
0
0
0
0
0
0
0
0
0
0
0
0
0
0
0
0
0
0
0
0
0
0
0
0
0
0
0
0
0
0
0
0
0
0
0
0
0
0
0
0
0
0
0
0
0
0
0
0
0
0
0
0
0
0
0
0
0
0
0
0
0
0
0
0
0
0
0
0
0
0
0
0
0
0
0
0
0
0
0
0
0
0
0
0
0
0
0
0
0
0
0
0
0
0
0
0
0
0
0
0
0
0
0
0
0
0
0
0
0
0
0
0
0
0
0
0
0
0
0
0
0
0
0
0
0
0
0
0
0
0
0
0
0
0
0
0
0
0
0
0
0
0
0
0
0
0
0
0
0
0
0
0
0
0
0
0
0
0
0
0
0
0
0
0
0
0
0
0
0
0
0
0
0
0
0
0
0
0
0
0
0
0
0
0
0
0
0
0
0
0
0
0
0
0
0
0
0
0
0
0
0
0
0
0
0
0
0
0
0
0
0
0
0
0
0
0
0
0
0
0
0
0
0
0
0
0
0
0
0
0
0
0
0
0
0
0
0
0
0
0
0
0
0
0
0
0
0
0
0
0
0
0
0
0
0
0
0
0
0
0
0
0
0
0
0
0
0
0
0
0
0
0
0
0
0
0
0
0
0
0
0
0
0
0
0
0
0
0
0
0
0
0
0
0
0
0
0
0
0
0
0
0
0
0
0
0
0
0
0
0
0
0
0
0
0
0
0
0
0
0
0
0
0
0
0
0
0
0
0
0
0
0
0
0
0
0
0
0
0
0
0
0
0
0
0
0
0
0
0
0
0
0
0
0
0
0
0
0
0
0
0
0
0
0
0
0
0
0
0
0
0
0
0
0
0
0
0
0
0
0
0
0
0
0
0
0
0
0
0
0
0
0
0
0
0
0
0
0
0
0
0
0
0
0
0
0
0
0
0
0
0
0
0
0
0
0
0
0
0
0
0
0
0
0
0
0
0
0
0
0
0
0
0
0
0
0
0
0
0
0
0
0
0
0
0
0
0
0
0
0
0
0
0
0
0
0
0
0
0
0
0
0
0
0
0
0
0
0
0
0
0
0
0
0
0
0
0
0
0
0
0
0
0
0
0
0
0
0
0
0
0
0
0
0
0
0
0
0
0
0
0
0
0
0
0
0
0
0
0
0
0
0
0
0
0
0
0
0
0
0
0
0
0
0
0
0
0
0
0
0
0
0
0
0
0
0
0
0
0
0
0
0
0
0
0
0
0
0
0
0
0
0
0
0
0
0
0
0
0
0
0
0
0
0
0
0
0
0
0
0
0
0
0
0
0
0
0
0
0
0
0
0
0
0
0
0
0
0
0
0
0
0
0
0
0
0
0
0
0
0
0
0
0
0
0
0
0
0
0
0
0
0
0
0
0
0
0
0
0
0
0
0
0
0
0
0
0
0
0
0
0
0
0
0
0
0
0
0
0
0
0
0
0
0
0
0
0
0
0
0
0
0
0
0
0
0
0
0
0
0
0
0
0
0
0
0
0
0
0
0
0
0
0
0
0
0
0
0
0
0
0
0
0
0
0
0
0
0
0
0
0
0
0
0
0
0
0
0
0
0
0
0
0
0
0
0
0
0
0
0
0
0
0
0
0
0
0
0
0
0
0
0
0
0
0
0
0
0
0
0
0
0
0
0
0
0
0
0
0
0
0
0
0
0
0
0
0
0
0
0
0
0
0
0
0
0
0
0
0
0
0
0
0
0
0
0
0
0
0
0
0
0
0
0
0
0
0
0
0
0
0
0
0
0
0
0
0
0
0
0
0
0
0
0
0
0
0
0
0
0
0
0
0
0
0
0
0
0
0
0
0
0
0
0
0
0
0
0
0
0
0
0
0
0
0
0
0
0
0
0
0
0
0
0
0
0
0
0
0
0
0
0
0
0
0
0
0
0
0
0
0
0
0
0
0
0
0
0
0
0
0
0
0
0
0
0
0
0
0
0
0
0
0
0
0
0
0
0
0
0
0
0
0
0
0
0
0
0
0
0
0
0
0
0
0
0
0
0
0
0
0
0
0
0
0
0
0
0
0
0
0
0
0
0
0
0
0
0
0
0
0
0
0
0
0
0
0
0
0
0
0
0
0
0
0
0
0
0
0
0
0
0
0
0
0
0
0
0
0
0
0
0
0
0
0
0
0
0
0
0
0
0
0
0
0
0
0
0
0
0
0
0
0
0
0
0
0
0
0
0
0
0
0
0
0
0
0
0
0
0
0
0
0
0
0
0
0
0
0
0
0
0
0
0
0
0
0
0
0
0
0
0
0
0
0
0
0
0
0
0
0
0
0
0
0
0
0
0
0
0
0
0
0
0
0
0
0
0
0
0
0
0
0
0
0
0
0
0
0
0
0
0
0
0
0
0
0
0
0
0
0
0
0
0
0
0
0
0
0
0
0
0
0
0
0
0
0
0
0
0
0
0
0
0
0
0
0
0
0
0
0
0
0
0
0
0
0
0
0
0
0
0
0
0
0
0
0
0
0
0
0
0
0
0
0
0
0
0
0
0
0
0
0
0
0
0
0
0
0
0
0
0
0
0
0
0
0
0
0
0
0
0
0
0
0
0
0
0
0
0
0
0
0
0
0
0
0
0
0
0
0
0
0
0
0
0
0
0
0
0
0
0
0
0
0
0
0
0
0
0
0
0
0
0
0
0
0
0
0
0
0
0
0
0
0
0
-3.31790799860607977293837e-52
-4.236649430806686041705712e-40
-1.670021352278471960735058e-38
-3.283371025289776968189388e-37
-4.292974902217175605586515e-36
-4.199450970376958693614497e-35
-3.278336989144266160980756e-34
-2.127514033422895781416817e-33
-1.180552456781122132235147e-32
-5.718058044882884182831878e-32
-2.455856631525130446322218e-31
-9.469887486359868891274435e-31
-3.311614377474177136709232e-30
-3.699431474531625864598963e-30
-4.122315902030336130414274e-30
-4.581756086720568344054936e-30
-5.079016688775908689645098e-30
-5.615081237022932889618347e-30
-6.1905907441119353336507e-30
-6.805779153245221683964048e-30
-7.460406737659783966100303e-30
-8.15369286042729992942735e-30
-8.884249797106861301508651e-30
-9.650019616683446210958054e-30
-1.044821639401310196493299e-29
-1.127527627412789769823454e-29
-1.212681810769926887439882e-29
-1.299761750842322573516724e-29
-1.38815972268678569863971e-29
-1.47718366711349917114689e-29
-1.566060321341138481109493e-29
-1.653940758654213033923071e-29
-1.73990851837001365374722e-29
-1.822990442050133708928706e-29
-1.90217025035563211568068e-29
-1.976404798275454702004475e-29
-2.044642836748351446037901e-29
-2.105845989200126880245261e-29
-2.159011526673093039709322e-29
-2.203196400619804212001065e-29
-2.237541874653842778332858e-29
-2.261297992935782542410805e-29
-2.273847041148150487453243e-29
-2.274725103837964052741487e-29
-2.263640806308246883905241e-29
-2.240490356022256363018376e-29
-2.205368071589374984598695e-29
-2.15857170833729999370454e-29
-2.100602056820846217781773e-29
-2.032156499711391818577152e-29
-1.954116455334910557079203e-29
-1.867528901493379692099598e-29
-1.773582447202069776775763e-29
-1.673578686745660534838231e-29
-1.568899813213572514553682e-29
-1.460973670944587241995464e-29
-1.351237573258266711214347e-29
-1.241102291612070775611649e-29
-1.131917627176562403262696e-29
-1.024940903074874856391422e-29
-9.213095680270532936603695e-30
-8.220188882602572416113771e-30
-7.279054377237067297796635e-30
-6.396367943847241370880821e-30
-5.577075328420283453150832e-30
-4.824412918359842777716418e-30
-4.139984098251712792690945e-30
-3.52388380490174259691733e-30
-2.974861967075940312368885e-30
-2.490515350785652963722239e-30
-2.067496868023938382351535e-30
-1.701731623105288402708075e-30
-1.388629793579676411268983e-30
-1.382675046573730867577083e-30
-1.30829534073176993224235e-30
-1.180009656579083662791308e-30
-1.017246736998570402691924e-30
-8.401409653789676151102653e-31
-6.661459980219226379866448e-31
-5.080260451833958849854762e-31
-3.732731011972053627791492e-31
-2.646340751636000612103532e-31
-1.812744979683180769686511e-31
-1.201269903571308037719287e-31
-7.70997216059528814115851e-32
-4.797651855788579866225791e-32
-2.897266774144344779561174e-32
-1.699499294553643749320751e-32
-9.691418886552566488097235e-33
-5.376800267786240666927956e-33
-2.904320852244016511212872e-33
-1.528422137904811087337963e-33
-7.841439313290067733475428e-34
-3.924290819014258460326482e-34
-1.916830319488029465737854e-34
-9.143103976513702555457282e-35
-4.260974888073266536405485e-35
-1.941046209559306888934825e-35
-8.647089536444614666327554e-36
-3.768746901946632671852261e-36
-1.607657624723600058697065e-36
-6.714720142203968046700618e-37
-2.7470106973561670550559e-37
-1.101143354174185667232176e-37
-4.326379450865473080897242e-38
-1.666642090156115157935632e-38
-6.296958667646278205900727e-39
-2.334093442496666250509843e-39
-8.490384998508247029951459e-40
-3.031629674711962794357217e-40
-1.062864028578326689423291e-40
-3.659660518854756410155516e-41
-1.237855546412543761614663e-41
-4.114014102803702588754785e-42
-1.343770269325282312926775e-42
-4.314604020319711390144262e-43
-1.362082271790171007438195e-43
-4.228621318977532029502062e-44
-1.291251371200420002987288e-44
-3.87900091806829142654984e-45
-1.14657845661941032468932e-45
-3.335319999350875832116089e-46
-9.549783310811879993655064e-47
-2.691793712854724105875754e-47
-7.470503409354092215361861e-48
-2.041658502731608024896852e-48
-5.495466644126949634114767e-49
-1.457052737653390911835252e-49
-3.805871479497845324940063e-50
-9.794856331480513342123551e-51
-2.484060466146923243890821e-51
-6.208684292941509663297249e-52
-1.529542993970693338146947e-52
-3.714480861318412576433768e-53
-8.893174280550259222530232e-54
-2.099345787058439548663164e-54
-4.886796740425355159881663e-55
-1.121813674115001984889745e-55
-2.539889421300908857601601e-56
-5.67213353343446037062927e-57
-1.249551201704593842300527e-57
-2.715654752293931435174851e-58
-5.822954242029134908828721e-59
-1.23195395375370868693926e-59
-2.57193705502725474822402e-60
-5.29873218672661961282709e-61
-1.07735520216314503405194e-61
-2.16196775912159324439548e-62
-4.282224300872010098778798e-63
-8.372294986033325542651984e-64
-1.615838666260589389161462e-64
-3.078588837438733718489959e-65
-5.790629940880400711850514e-66
-1.075322822539358935866307e-66
-1.97154899696482300836829e-67
-3.569002215267462081663978e-68
-6.379248338962590542825995e-69
-1.125865463118113251298224e-69
-1.962033520159657112778599e-70
-3.376257517124915452382991e-71
-5.736904858836836092517414e-72
-9.625728964013654038354722e-73
-1.594782401669078482694366e-73
-2.609009477034031249229936e-74
-4.21451099044952788466078e-75
-6.722066528130459623934263e-76
-1.05858231361094153912345e-76
-1.645847330583267764068117e-77
-2.526204030068517665194052e-78
-3.827588466474807413783975e-79
-5.724215281003620339822949e-80
-8.44864757010365620973413e-81
-1.230479822355469365201092e-81
-1.768073218729898761515197e-82
-2.505941711128519785738078e-83
-3.502465578492859919307475e-84
-4.825834567918328638884898e-85
-6.552400291156345189881728e-86
-8.763026086061618295194793e-87
-1.15366963297597047407852e-87
-1.494057322642780566116822e-88
-1.901567692387244105821211e-89
-2.37574448885462094020869e-90
-2.90906300358368576763705e-91
-3.48383518855166687823253e-92
-4.068563958292837127395739e-93
-4.613850305737910003503597e-94
-5.048041994598428360026323e-95
-5.272908479371746724057034e-96
-5.159725638068426251021515e-97
-4.546245147505517558783763e-98
-3.235093633872081704995761e-99
-9.941813745642166467340001e-101
2.44031528076587874282895e-101
7.357911892487671840490791e-102
1.406437740149215102243786e-102
2.286878311986341048900829e-103
3.406720901249528528827008e-104
4.792361082958361420496958e-105
6.464870728373048141814749e-106
8.437808971489640166226304e-107
1.071510481570884241947146e-107
1.328918069671753734655055e-108
1.613949336892160162362527e-109
1.923165992946305034564355e-110
2.251731130558179087470226e-111
2.593477353662326442876138e-112
2.941062103800107678790099e-113
3.286207995457774582825338e-114
3.620018944295968731994834e-115
3.933356098881824858558754e-116
4.217251763263468201782316e-117
4.463335263441051747395676e-118
4.664242567257997880042874e-119
4.813981712689183625211804e-120
4.908228785889294129709279e-121
4.944534110014279612424187e-122
4.922425011051166159715637e-123
4.843399379609686896071399e-124
4.710812492946419880721513e-125
4.529667415214286590138698e-126
4.306326032030236601882014e-127
4.048162813837670557886358e-128
3.763186356756216110366679e-129
3.459654467676729941926142e-130
3.145707125839614504196038e-131
2.829038359678288985210267e-132
2.516623380705007545558738e-133
2.214511769162919481065195e-134
1.927691691383897150308633e-135
1.660024591847957570372991e-136
1.414244998369705447057321e-137
1.192016333005706264981502e-138
9.940311144942020562704788e-140
8.201427060097819394320761e-141
6.695157133584767221678527e-142
5.407830843786151339356848e-143
4.321996490306928610587517e-144
3.417839947253452997287319e-145
2.674429235110929025595147e-146
2.070750509625958797259875e-147
1.586521958963711699571504e-148
1.202789494096996354343569e-149
9.023213439023259482707733e-151
6.698275863211857296873278e-152
4.920355428074941677826901e-153
3.576534127368226498447998e-154
2.572532716988523944429079e-155
1.831013989778749453074566e-156
1.289595925764609423872693e-157
8.987633043434619291621527e-159
6.198186219942957735687574e-160
4.229693639391964327878131e-161
2.856111100373174153576789e-162
1.908356769304379889945108e-163
1.261706215682603870706164e-164
8.254039760733117001650127e-166
5.342930082984403980688144e-167
3.422091143082979734601207e-168
2.16868702423210884715282e-169
1.359843907776897293680324e-170
8.436480743205609845494489e-172
5.178529369534629332685224e-173
3.144972078957823071149565e-174
1.88966280661823074351218e-175
1.123312357412730709559448e-176
6.606273916788173937111983e-178
3.84364390983801735301348e-179
2.212333251835410604570973e-180
1.259704488043402573831751e-181
7.095565739504354139284557e-183
3.953617860209848060457091e-184
2.179115987728406004068423e-185
1.188043328320306266564715e-186
6.406758645819848974688085e-188
3.417323300931768465189639e-189
1.802861870839775343579386e-190
9.407065621543867876631092e-192
4.854533105023764079965474e-193
2.477582699543079217027241e-194
1.250494136364937264889359e-195
6.241557183284961699083073e-197
3.080680109473289161446815e-198
1.503580711784565136713455e-199
7.256330890447612399418847e-201
3.462588363202084349063231e-202
1.633657180311965653849123e-203
7.620432704994733501242667e-205
3.51430055625149438231803e-206
1.602212772940403330858203e-207
7.221118750747803787809192e-209
3.21715739658383624337346e-210
1.416784149840106270765204e-211
6.167060006454771069076293e-213
2.653229459748847264610828e-214
1.128163751875837257231615e-215
4.740762453233372929282378e-217
1.968704224808096825022159e-218
8.07878309370385291065918e-220
3.275827653568106902540539e-221
1.312446579311541798968209e-222
5.195209020478585121723641e-224
2.031701697317860960796371e-225
7.849220481889327412123778e-227
2.995548235791105886403222e-228
1.129229541691039394846897e-229
4.204521355532117718562331e-231
1.546147635767931635570859e-232
5.615086046232347849611106e-234
2.013739295549992213176157e-235
7.131174675938098865931455e-237
2.493439439544195972007967e-238
8.607651801214677292768753e-240
2.933500218592438991130853e-241
9.86892432327137152072669e-243
3.277190454857850432530406e-244
1.074105201068873902429975e-245
3.47431760383359094511233e-247
1.109004249280480813167403e-248
3.493015132295785495543283e-250
1.085507831176205715190502e-251
3.328062287308723720095317e-253
1.00655087344312377102419e-254
3.002787837376358550262044e-256
8.835192825296742143040834e-258
2.563696923570124880737364e-259
7.335544121737926738467327e-261
2.069510457380262973291383e-262
5.756069972890390468292153e-264
1.578192563167155031356827e-265
4.265014819541501324099494e-267
1.135945806543970065858059e-268
2.981396956377826559834235e-270
7.710000332372210736507056e-272
1.964297651243045076052858e-273
4.929728377506239258174431e-275
1.218553194261127163892459e-276
2.966287869558835084671555e-278
7.109995364062275398921175e-280
1.677841147993404022657784e-281
3.897574768113285561081227e-283
8.911175392569945854970128e-285
2.004958826499954741638352e-286
4.438507613428767017209257e-288
9.666264388243768176788352e-290
2.070606914210151997622469e-291
4.361932212612226322619749e-293
9.034938148104785418587961e-295
1.839742014759527887563761e-296
3.682071259067476354877303e-298
7.241799807178554678927219e-300
1.399370885803292599214847e-301
2.656203521544520210988352e-303
4.951529933275168540808278e-305
9.06298765829593872459533e-307
1.628390438104407007499288e-308
2.871434192570859291386203e-310
4.968061192842858536828765e-312
8.431672929099546033276729e-314
1.403344060447476684079126e-315
2.292464596703383964979279e-317
3.754898908393473735741923e-319
0
0
0
0
0
0
0
0
0
0
0
0
0
0
0
0
0
0
0
0
0
0
0
0
0
0
0
0
0
0
0
0
0
0
0
0
0
-9.600517938890938685697509e-38
-3.803635266942299236378715e-36
-7.515095762799712703304641e-35
-9.872656214338832620995235e-34
-9.701604839232838059037263e-33
-7.606514933273863456657744e-32
-4.956590844518071371279144e-31
-2.760985021027418373959279e-30
-1.342077486501442902496869e-29
-5.7830551499551856862867e-29
-2.236622419218549756082686e-28
-7.842290718371849766658238e-28
-2.513662371228396677895565e-27
-7.41661994882266596727111e-27
-8.045021354965489861963772e-27
-8.702076224599151665345166e-27
-9.385660928809779906825063e-27
-1.009309047068711701921127e-26
-1.082109124637258512153891e-26
-1.156578225142356502016259e-26
-1.232266646742356578029536e-26
-1.308663413511456851914196e-26
-1.385197952638807362186245e-26
-1.461243265990099606161709e-26
-1.53612071572809688133195e-26
-1.609106510471012451605892e-26
-1.679439936718022955492724e-26
-1.746333330285506234235006e-26
-1.808983725027609230874226e-26
-1.866586052415606414343126e-26
-1.918347697414669771352276e-26
-1.963504145852794961910725e-26
-2.001335388963596458945628e-26
-2.031182685280575755516215e-26
-2.05246522217312889168672e-26
-2.06469617282830211324569e-26
-2.067497613162282036553236e-26
-2.060613750508463284860563e-26
-2.043921924988789790624857e-26
-2.017440877474394000909026e-26
-1.981335836197001462827971e-26
-1.93592005734106876984962e-26
-1.88165256185040686129417e-26
-1.81913193820560241962195e-26
-1.749086224507647951681462e-26
-1.672359036840818219284327e-26
-1.589892267368633928211636e-26
-1.502705826870142633936844e-26
-1.411875043965174209364343e-26
-1.318506448765901745003236e-26
-1.223712754510437471967763e-26
-1.128587900596847182661851e-26
-1.034183029928086950726328e-26
-9.41484240516603362457319e-27
-8.513928764201141489241828e-27
-7.647090095628075837623009e-27
-6.821186177377279621862798e-27
-6.041847932839491638820868e-27
-5.313431315402538970486597e-27
-4.639012592045357558225267e-27
-4.02042281421643238381341e-27
-3.458317634130494433020574e-27
-2.95227726953013784936737e-27
-2.500930410716665435473279e-27
-2.102095244833227640619191e-27
-1.752930559604287106906965e-27
-1.45009006854747655649698e-27
-1.18987363198496903948015e-27
-9.68369870941141297771294e-28
-7.815857065670284394862305e-28
-6.255595201743620963184776e-28
-4.96455831683831027777756e-28
-3.906405569774935679907381e-28
-3.047369590640808915913508e-28
-2.723885320265039127692828e-28
-2.326603326302126759714486e-28
-1.903710978891552640025125e-28
-1.495474208575653121874656e-28
-1.130078396908874419347579e-28
-8.229175497632893453285277e-29
-5.783821047669569033098692e-29
-3.929281588340277545357407e-29
-2.583597368688347270347713e-29
-1.646170716412739322082315e-29
-1.017525566525184454165588e-29
-6.107734345758526956323642e-30
-3.563601765721828976922893e-30
-2.022794170322788630660143e-30
-1.117942405769474008154828e-30
-6.0203136386630465118425e-31
-3.161220695868917378880152e-31
-1.619608049632860568619608e-31
-8.101192855394377942266484e-32
-3.958395603415899658978653e-32
-1.890392571447675758954621e-32
-8.828038974500162083172563e-33
-4.033289437501097205524915e-33
-1.803551744264686694080979e-33
-7.896810592740644552805486e-34
-3.386866769137613205099187e-34
-1.423401868277192557814768e-34
-5.863957948700805887329437e-35
-2.368812783461818340080512e-35
-9.386038305405254944640772e-36
-3.648998957132393942795966e-36
-1.392280315064132941929683e-36
-5.215030956541180771551948e-37
-1.918114784714752839582865e-37
-6.929229123148873963609194e-38
-2.459168513089598540489099e-38
-8.575920137998797896883839e-39
-2.939369642669825046156704e-39
-9.903686972976350582678416e-40
-3.280903783395202878445145e-40
-1.068871139847520054763256e-40
-3.425080489512164336478828e-41
-1.079705256481507758565301e-41
-3.348893828458891335207355e-42
-1.02218488718044391661332e-42
-3.070840290904428862294894e-43
-9.081345911013734466177516e-44
-2.644062919415355266771152e-44
-7.580245172559736978934283e-45
-2.140148906122885186420047e-45
-5.951295483194765344030746e-46
-1.630202470171035713907845e-46
-4.399345870825583818034548e-47
-1.169778301316411694164267e-47
-3.065057919600174572272232e-48
-7.914850519596111753795849e-49
-2.014482037516496496543612e-49
-5.054137163810294247397915e-50
-1.250081904636965961493849e-50
-3.04846510692232371404059e-51
-7.330227357995414689368719e-52
-1.738152720136448741407992e-52
-4.064734622074810397886413e-53
-9.375370842790565128357749e-54
-2.13301372818871813525104e-54
-4.78722082824403056825074e-55
-1.05996691565953230854953e-55
-2.315545753237359015271786e-56
-4.991126187337628894406426e-57
-1.061594166352903556418879e-57
-2.228243703653120422868565e-58
-4.615716979958670171018621e-59
-9.436584030407518324579672e-60
-1.904211286978137220511902e-60
-3.79283833442225812696268e-61
-7.457361937172531166387919e-62
-1.447435487431910758614925e-62
-2.773487871113900409671595e-63
-5.246683072167752515630803e-64
-9.799225844132190508599579e-65
-1.807017245179518366277614e-65
-3.290106087368712605952304e-66
-5.91488381526928534962236e-67
-1.049979749991393554754154e-67
-1.84043969820313345339825e-68
-3.185470140207748683510199e-69
-5.44426958878621920296246e-70
-9.187979806040996256790624e-71
-1.531129847119523973428433e-71
-2.51947243752585813187953e-72
-4.093579408349851669419882e-73
-6.567184852605265937065927e-74
-1.040206439854353666565722e-74
-1.626675141886204860115006e-75
-2.511273183984920910467997e-76
-3.827040003585601679725991e-77
-5.756575195151200721927682e-78
-8.545638836050012782673601e-79
-1.25181527251375091527464e-79
-1.809150005109357192203083e-80
-2.579023122627718853940629e-81
-3.625525824611450281640773e-82
-5.024436623627344064121053e-83
-6.861843472177104072183959e-84
-9.230624077139064775182211e-85
-1.222392739626866061837816e-85
-1.592468629764990769848694e-86
-2.039013997858947412943682e-87
-2.563039110627890182276387e-88
-3.158020569629272438400439e-89
-3.806362062051589841263759e-90
-4.475148335025335026530556e-91
-5.111282436324886960744025e-92
-5.636194391833526270189158e-93
-5.940423947678858846228788e-94
-5.878502881124001008359065e-95
-5.264681900448597181551779e-96
-3.870148025347862478051916e-97
-1.42244278426187338217311e-98
2.392198995766611782513798e-99
7.922932651400379160752916e-100
1.554429969184114527827006e-100
2.564186453668803990043922e-101
3.859354436394157707827635e-102
5.474707929287334219437442e-103
7.439452784751991399131902e-104
9.774511440891037964876811e-105
1.248981540729315807828625e-105
1.558180851458786021006003e-106
1.903138017027511728676932e-107
2.280244581504098778817302e-108
2.684136896085590616698312e-109
3.107737515568316379358112e-110
3.542404486384728922350851e-111
3.978189389148759588084442e-112
4.404196308059920981516658e-113
4.809025156375619944660966e-114
5.181274865881294551575744e-115
5.510075695930299650950687e-116
5.785616050391005239604783e-117
5.999628202083588164367038e-118
6.145799416130119320194511e-119
6.220080013847036702654663e-120
6.220867487262120895984429e-121
6.149055150255079861384478e-122
6.007944095150854020171929e-123
5.803027427727773692299365e-124
5.541664921769198232638252e-125
5.232673545342774947814321e-126
4.88586416715210318896255e-127
4.511556834863263246729677e-128
4.120106310472814478739582e-129
3.721466315327454241953032e-130
3.324815676764540545030976e-131
2.938262936026226623164197e-132
2.568638702903869201880273e-133
2.221377843181884069481941e-134
1.900487088733514517097906e-135
1.608588350158975658662389e-136
1.347024193349971287636297e-137
1.116009733312569476492774e-138
9.148145482141815338802643e-140
7.419589309787331671326481e-141
5.954105843505272511237819e-142
4.727703865647442250408435e-143
3.714387601156308159901492e-144
2.887571470773181216899108e-145
2.221218691242850705195292e-146
1.690700386485712392302083e-147
1.273390749214190940412683e-148
9.490272273101416037738411e-150
6.998728629910390686341326e-151
5.10721384588692720668786e-152
3.687853151410577514303803e-153
2.635042148275337507783408e-154
1.863052046393069943960269e-155
1.303420144695757978246437e-156
9.023268807806539783113928e-158
6.181030240590509001000453e-159
4.189597669874874314350384e-160
2.809924971042002132853262e-161
1.86476484404662888183998e-162
1.224491810213282799628717e-163
7.955824854566487150957213e-165
5.114540939748573428188202e-166
3.253227047736028235092152e-167
2.047397044155763303746606e-168
1.274861574351547607210229e-169
7.853985651035829645973261e-171
4.787135459786749218696314e-172
2.886767982549269646555802e-173
1.722226178122688239813512e-174
1.016486972552723569150764e-175
5.935229860052088072917329e-177
3.428370323632327152961754e-178
1.959035589213229339165257e-179
1.107365246750438405293983e-180
6.191880475415500917942983e-182
3.424728049946807193855023e-183
1.873655768548771673253175e-184
1.013915202736457772409105e-185
5.426866081789106878074856e-187
2.872892182708021024801728e-188
1.504177219770313626293997e-189
7.788869620776234147227242e-191
3.988701018643612566440932e-192
2.020019742799434011989234e-193
1.011653666066039522849613e-194
5.01008196660344304294598e-196
2.453458460203849648942357e-197
1.188002190074847250708643e-198
5.687792387562000700888407e-200
2.692409147512328310094682e-201
1.260061152176142184918692e-202
5.830118628334082751769764e-204
2.666735024742249909145288e-205
1.205813313138230990670383e-206
5.38962536078996250119646e-208
2.381197680493634425433504e-209
1.039849002009105357812547e-210
4.488096143797444672453086e-212
1.914474783091517729383714e-213
8.070693268255793067684755e-215
3.362197875470802601833392e-216
1.384088757186859859263183e-217
5.63001200078919087895351e-219
2.262743454430007620186499e-220
8.984983287796985435753146e-222
3.524763273050965017630367e-223
1.365990047266939061502266e-224
5.229300356744320515392552e-226
1.977384236549391781216513e-227
7.385200720952129672911252e-229
2.724137204485038348678738e-230
9.923436947276912832706669e-232
3.569702838600016676810075e-233
1.267968566616770620307597e-234
4.446930431561018394917024e-236
1.539769937167716502047974e-237
5.263352710969982372320983e-239
1.776016400719174411141091e-240
5.915279496934256419421419e-242
1.944520408714697994203906e-243
6.308454760675532610877403e-245
2.019622493384247216226063e-246
6.379941855722740471377264e-248
1.988493891299352653322755e-249
6.114396575156904781843058e-251
1.854661189738438334872733e-252
5.549017143220305686358999e-254
1.637441943933321089573482e-255
4.765088209629194384041476e-257
1.367372781352448571654622e-258
3.868731015020669030452143e-260
1.079118883818215372979112e-261
2.967164125883337741770266e-263
8.041490044408729246488346e-265
2.147850689045594227604349e-266
5.653180844652774009675524e-268
1.466054808117490210506604e-269
3.745605223063593425692411e-271
9.426549988406587494385477e-273
2.336606418733267494027688e-274
5.70376850910338858031386e-276
1.370950243433505703406944e-277
3.244167565690560177999807e-279
7.556892752254127279616946e-281
1.73251295265447510810392e-282
3.908732979988706539167118e-284
8.676667083862308599754985e-286
1.894769790167356649027381e-287
4.069805722832229931759869e-289
8.596657167135702444911123e-291
1.785447232083175798213524e-292
3.645410053005832513290748e-294
7.31552973948365830406872e-296
1.442649281752691069982879e-297
2.795144657713008921017236e-299
5.319693097646339087329439e-301
9.942944211984536067879974e-303
1.824710437737926385752758e-304
3.287189302489867989810028e-306
5.811728160293339350148655e-308
1.008161908445649271088577e-309
1.715499925155520167143582e-311
2.862686509325891933968313e-313
4.683406357935845191143832e-315
7.507821554203582485307139e-317
1.165994924185341844256702e-318
1.976262583364986176706275e-320
0
0
0
0
0
0
0
0
0
0
0
0
0
0
0
0
0
0
0
0
0
0
0
0
0
0
0
0
0
0
0
0
0
0
0
-1.26659317435614402000301e-39
-1.957171493210862341649715e-36
-7.635319715896566371476255e-35
-1.49808837044086471077563e-33
-1.958442340357939752647642e-32
-1.916599499179096733843697e-31
-1.497039486593282879244655e-30
-9.719811943008306309319258e-30
-5.395014892902106250453931e-29
-2.61314460593810892973147e-28
-1.121991850514383208168817e-27
-4.323659381185764368026426e-27
-1.510433299469988318439469e-26
-4.823185521472506649209717e-26
-1.417641438244238041110667e-25
-1.558191844052283361216925e-25
-1.707372638982295881506941e-25
-1.864929840410370040466562e-25
-2.030469565151968831555025e-25
-2.203445797078549376148543e-25
-2.383149723192396412542952e-25
-2.568701174145691166481724e-25
-2.759042728479413286007223e-25
-2.952937046452804782530748e-25
-3.14896798571522779993266e-25
-3.345546013972394144562418e-25
-3.540918370445992844725404e-25
-3.733184336298610029952655e-25
-3.920315853299991081585456e-25
-4.100183580153592527846689e-25
-4.270588298938710576294504e-25
-4.429297383672119005010837e-25
-4.574085824565560000176413e-25
-4.702781072607988045104161e-25
-4.813310738951246643202424e-25
-4.903751963193717410589743e-25
-4.972381066271199191596739e-25
-5.017721940256692007817823e-25
-5.03859151196137823802097e-25
-5.034140562064469646698349e-25
-5.003888197138794594147388e-25
-4.947748366291198100004871e-25
-4.866046991541060999233791e-25
-4.75952854146763561856367e-25
-4.629351216010475780267167e-25
-4.477070316217622094366942e-25
-4.304609830489730841354999e-25
-4.114222757889584326133194e-25
-3.908441184788916484710007e-25
-3.690017606249573238384379e-25
-3.461859409798243984421398e-25
-3.226958789322711056680236e-25
-2.988320606369117452840577e-25
-2.748890845900882836660143e-25
-2.511488311185242721160687e-25
-2.278742063745435820453062e-25
-2.053036844114787986022853e-25