# geometry NO_DATA 888
#  x  y  z
3.042916611379014035776436 0.007227047107993803468084515 1.414310435728978188052452
3.035833222758029581456185 -0.01666666666666667684371106 1.421530134933012279319087
3.042916611379014035776436 -0.02610628622533952419848546 1.414310435728978188052452
3.021285894775602276496329 -0.01242798929818900166566209 1.435833222758030602861368
3.013821955414159425856724 -0.03159454538955294711222166 1.442916611379015279226223
3.013821955414159425856724 0.006738566793174961995493977 1.442916611379015279226223
3.028796534211528168611949 -0.03583322275803062229027063 1.414493446386510200341036
3.014249206229100863652093 -0.03583322275803063616805844 1.428796534211528967972527
3.014249206229100863652093 0.03583322275803062229027063 1.428796534211528967972527
3.028796534211528168611949 0.03583322275803061535137672 1.414493446386510422385641
3.091997910351095057990278 0.001983336959012001361746247 1.409985426607916370045359
3.083995820702190471251924 -0.01666666666666666296592325 1.417989578830600949643781
3.091997910351095057990278 -0.03134999637432132890690895 1.409985426607916814134569
3.074759462660549225176965 -0.001806049416615440605937692 1.426565512077164754600744
3.073525194267813009929569 0.0006624873688568838538820449 1.427137293101043979959286
3.076219338613937814841393 -0.03399582070219021867618636 1.410213096742348959367064
3.066094885642787204460546 -0.0191352034521389893773069 1.420264513901051017796817
3.059552671947271207386621 -0.03399582070219021173729246 1.411916250788919580116954
3.066982980572297012855643 0.0191352034521389893773069 1.418789029988912542279422
3.058318403554534548050015 0.03513938274994876653778419 1.412488031812798805475495
3.076219338613937814841393 0.03399582070219021173729246 1.410213096742348959367064
3.057430308625024739654918 0.006533207099911964195471104 1.41396351572493728099289
3.06486061725005143330236 -0.01193950898337014371319853 1.420836294924930243155359
3.057430308625025183744128 -0.03041222506665224728505947 1.41396351572493728099289
3.141670545484613885633962 0.0009497909764054480834249983 1.409279245491791288102945
3.133341090969227415996556 -0.01666666666666663521034764 1.417145440972816361480113
3.141670545484613441544752 -0.03238354235692787741474064 1.409279245491791288102945
3.125003905557221628441766 -7.704157345501241519044808e-06 1.4250116097145668625501
3.124996174660601866435172 7.757635894640085892984271e-06 1.425011582975292512287524
3.125668707145096369970361 -0.03334109096922791004580233 1.409473057148685315453918
3.11666669340594104653519 -0.01668212845990677678509329 1.41733482235836416585073
3.109002040478429762515589 -0.03334109096922791698469624 1.409662465273507692131716
3.117331521733090582415571 0.01668212845990683229624452 1.417339225890435816523905
3.108994309581810000508995 0.03334103749067889033153023 1.409662438534233119824535
3.125668707145096369970361 0.03334109096922793780137795 1.409473057148685315453918
3.108329481254660464628614 0.001328553747500675619175325 1.409658035002160803017546
3.116658962509321284528596 -0.01534581707651151878668561 1.417334795619089593543549
3.108329481254660464628614 -0.03202018790052374441756911 1.409658035002160803017546
3.186356375840715404734738 -0.01420337183362129981900601 1.414875271575807058610508
3.193178187920358013229816 0.005486337340427362499473141 1.409285106912687712821253
3.193178187920358013229816 -0.0338930810076699812194434 1.409285106912687712821253
3.167677361052143147901461 -0.02295029371767465936615693 1.414654318544761313347635
3.177640986657289889905087 -0.03635637584071532701912588 1.409182924899763822423893
3.157832506465118704852557 -0.03659391787695932818369471 1.40830352313537443542657
3.157832506465118704852557 0.03659391787695934206148252 1.40830352313537443542657
3.167677361052143147901461 0.0229502937176746975300734 1.414654318544761313347635
3.177640986657289889905087 0.03635637584071534783580759 1.409182924899763600379288
3.176392750235568662731112 -0.003260584543625980567804756 1.42034666522080499362346
3.173250936710064529222564 0.003023042507382029710216731 1.420227894202682694668738
3.16340608212304008617366 -0.01572463332615581244056102 1.413877098793295816747673
3.156703041061519776633304 0.004202617884136852777210436 1.40764507440203079369212
3.156703041061519776633304 -0.03565188453644849153612029 1.407645074402031015736725
3.245309968263221822581954 0.03126052108413346353188444 1.435950552820911330087483
3.240619936526443645163909 -0.01666666666666666990481716 1.435940228805288487734515
3.245309968263221822581954 -0.002072812249199864568366403 1.435950552820911330087483
3.232001295596694578904362 -0.0005706151928311306315705353 1.432571910789526059559762
3.228072686403724134152071 0.007286603193110662880782602 1.429213916789386473737977
3.239246134131557042223903 -0.04061993652644400182305517 1.434566426410401662749905
3.220024660666806148867636 -0.02452388505260846146560638 1.421826923276160004050439
3.222579467464890434769131 -0.04061993652644400182305517 1.423811114881412986932219
3.230627493201808420053567 0.02452388505260845799615943 1.431198108394639234575152
3.218650858271919990016841 0.03390394852616446241810877 1.420453120881273179065829
3.239246134131557042223903 0.04061993652644399488416127 1.434566426410401662749905
3.208048025736918162920119 0.003033910025876472744965628 1.411081935762794170585721
3.216096051473835704115345 -0.01420337183362132410513468 1.418468929276020418228654
3.208048025736918162920119 -0.03144065369311911661842629 1.411081935762794170585721
3.260062905410313405241141 -0.03786149470973386443883868 1.447924400120047305762228
3.25814485252508534429694 -0.008679361136305659488177078 1.445848800240094877977981
3.260062905410313405241141 0.02050277243712254199303757 1.447924400120047305762228
3.256069252645133360601903 -0.04584880024009486965130833 1.44324469239889197069715
3.256069252645133360601903 0.04584880024009486965130833 1.443244692398892192741755
3.252075599879952427784247 0.0364893847977843382990315 1.438564984677736635632073
3.254151199759905299657703 0.007307251224356136817816854 1.441169092518939764957508
3.252075599879952427784247 -0.0218748823490720646633978 1.438564984677736635632073
2.992347451060272334188994 0.003598467285391371284219986 1.461251016225118881664002
2.984694902120545112467198 -0.01666666666666666990481716 1.469146684702968386204702
2.992347451060272334188994 -0.02973486604794197199486128 1.461251016225118881664002
2.968565718798760855179353 -0.01559169997690117333288828 1.484694902120545556556408
2.960089084416704707791723 -0.03361993543077976959176922 1.492347451060272778278204
2.960089084416704707791723 0.002436535476977423793354394 1.492347451060272778278204
2.977050090790325231893121 -0.03469490212054526789842157 1.461501873372748505630625
2.960920907468541418694485 -0.03469490212054526095952767 1.477050090790325231893121
2.960920907468540974605276 0.03469490212054526095952767 1.477050090790325231893121
2.977050090790325231893121 0.03469490212054526789842157 1.461501873372748505630625
3.025761861602727087472431 0.0001032304998191663604825696 1.474341368897090998046906
3.025458353676227396533704 -0.0007102463528182942093663899 1.474748107323409884727994
3.024924017623650485120379 -0.0003584257523367514889148233 1.475282443375987462275134
3.02469318949757237646736 0.0001032304998191677970504482 1.475410041002246153141186
3.017406585965537235694001 -0.0174801435193041240778733 1.46669633961271927979908
3.011140976066532637389628 -0.03404357968615163987369243 1.458311391029476489222816
3.01653906904040747249951 -0.01712832291882258189952282 1.468015944041834330846541
3.008718129455794532134405 -0.03343656383315249391863233 1.459836578704885035051575
3.016872249912959436102255 0.01712832291882259577731062 1.46723067566529685734622
3.008487301329716423481386 0.03369175908567010463423586 1.459964176331143725917627
3.019192743777223686407751 0.0174801435193041379556611 1.46636315874016709415173
3.010837468140033834629321 0.03343656383315249391863233 1.458718129455795153859299
3.019496251703723377346478 -0.01666666666666666296592325 1.465956420313848207470642
3.012927133878219976281798 -0.02838440961203735068973941 1.45797821015692408153086
3.012927133878219976281798 0.004948923721295989119894898 1.45797821015692408153086
3.008154120457164459878641 0.002595324250516205417949056 1.460749444707681199417948
3.016308240914329363846491 -0.01442976816848722323993748 1.468143541668093021712593
3.008154120457164459878641 -0.03145486058749066143880313 1.460749444707681199417948
3.290741586508840299529766 -0.001625238773620129532210266 1.492366825282460673918195
3.281820555330728694798381 0.01644174512463512927151754 1.484733650564921569880994
3.290741586508840299529766 0.0345087290228903720290532 1.492366825282460895962799
3.269898008345679674135908 -0.04568856209133257545440543 1.465904355580498918953936
3.273537530298038067400057 -0.03042221265625449921898849 1.474937847529626200326902
3.287936017239355468433359 -0.03473365056492190572345891 1.489448795241959278001787
3.273537530298038067400057 0.03042221265625451656622324 1.474937847529626644416112
3.287936017239355468433359 0.03473365056492191960124671 1.489448795241959722090996
3.269898008345679674135908 0.04568856209133258239329933 1.465904355580498918953936
3.260143024484694507236782 -0.03770125656097157718082968 1.452155718954333707415572
3.258305090673847548288222 -0.008679361136305657753453602 1.454311437908667237195459
3.260143024484694507236782 0.02034253428836026167392248 1.452155718954333707415572
3.261944612626205941552371 0.001400317231588598223049336 1.463344929857794740613031
3.267422068389411293765079 -0.01235522875799924258366502 1.47022270285258849220611
2.893837305908782742136509 0.0129809539298682830033016 1.519143648021085812871434
2.88767461181756512900165 -0.01666666666666668378260496 1.525327782873716842004796
2.893837305908782742136509 -0.02035237940346505680633271 1.519143648021085812871434
2.875128925291220660653835 -0.008424706386021288406773522 1.537674611817565040183808
2.868745932856094249530088 -0.02943265153691976623862026 1.543837305908782875363272
2.868745932856094249530088 0.01258323876487721024175492 1.543837305908782653318667
2.881514762694848741375608 -0.03767461181756516508389865 1.519167933751000010289545
2.868969076168504273027793 -0.03767461181756516508389865 1.531514762694848430513161
2.868969076168504273027793 0.03767461181756515120611084 1.531514762694848430513161
2.881514762694847853197189 0.03767461181756515120611084 1.51916793375099978824494
2.942036191718790938409711 0.001320963602658478328044644 1.509284771883867337649576
2.934072383437581699183738 -0.01666666666666667337426411 1.517696673520120720368709
2.942036191718790938409711 -0.03201236973067485280797229 1.509284771883867337649576
2.92361509258653029519337 -0.004247915035437803410456326 1.527863007621968138849411
2.921121610016687242250555 0.0007390501042491091215902443 1.529617440087562840744795
2.926124700887299034945954 -0.03407238343758246107428889 1.50974899096983738999711
2.914912234201072038786151 -0.0216536318063535911104811 1.523479986959328513762557
2.909458034220632871580392 -0.03407238343758246107428889 1.513777871943451147629389
2.915667410036246742777166 0.02165363180635357376324635 1.519915325071684808477812
2.906964551650788486369947 0.03758124836877112240340892 1.515532304409045183390958
2.926124700887299034945954 0.03407238343758245413539498 1.509748990969837167952505
2.906209375815614670557352 0.01288759048107425593532316 1.519096966296688666631098
2.912418751631228985843336 -0.008026991221030208706332942 1.525234419424922993613336
2.906209375815614670557352 -0.02894157292313466467437166 1.519096966296689110720308
2.952329769024850669723037 -0.04664854837999435344109145 1.501792285679968586009636
2.9517922856799678754669 -0.04664854837999435344109145 1.502083242429173015608512
2.9517922856799678754669 0.04664854837999433956330364 1.502083242429173015608512
2.952329769024850669723037 0.04664854837999433956330364 1.501792285679968141920426
2.95275069249976818142045 -0.045573581690228862073333 1.501675725810002859361703
2.953888934964887802436806 -0.01559169997690118027178219 1.503351451620005718723405
2.95275069249976773733124 0.01439018173642650846866253 1.501675725810002859361703
2.953351451620005008180669 -0.01608475316825731110670361 1.503642408369210592411491
2.951675725810002148818967 0.01389712854507037416429416 1.502257639308412162648665
2.951675725810002592908177 -0.0460666348815849946429779 1.502257639308412162648665
3.299591022293166364676154 -0.0164991048058309580648384 1.500492758637251400344326
3.29979551114658331556484 0.01642525082066868813424065 1.500372050714252392111803
3.29979551114658287147563 -0.04942346043233061814170526 1.500372050714252170067198
3.299683050375567194834048 -0.04959102229316631610389621 1.500288269783834227411035
3.299683050375567638923258 0.04959102229316631610389621 1.500288269783834671500244
3.299478561522150688034571 -0.01666666666666665602702935 1.500408977706833457688163
3.299570589604551518192466 0.01603276741780144259985619 1.500204488853416728844081
3.299570589604551518192466 0.04936610075113476853170269 1.500204488853416728844081
3.346284928206698427999299 0.0284882867839563666545466 1.532203358577258089923134
3.342569856413396767180757 -0.01666666666666668031315801 1.535529071598676909005121
3.346284928206698427999299 -0.004845046549376967950917283 1.532203358577258089923134
3.333679313000251553944508 -0.001114420159624820386851107 1.534793733159875994687127
3.328503841380407557437593 0.009236523080063639701275946 1.530732681699656483331751
3.33096133898819335428243 -0.04256985641339697257201635 1.523920554173473052017584
3.320727718126886163219069 -0.02701760990635511394675206 1.521925919216928324573246
3.314294672321526746827658 -0.04256985641339697257201635 1.514378453251944423030295
3.322070795575048141046182 0.02701760990635511394675206 1.5231852157346725817888
3.309119200701682750320742 0.03444775349295815108918717 1.510317401791725133719524
3.33096133898819335428243 0.04256985641339695869422854 1.523920554173473274062189
3.30777612325352166067205 0.001281982020460516180637711 1.50905810527398132059318
3.315552246507042610801363 -0.01649910480583095459539145 1.517864867756709035262475
3.30777612325352166067205 -0.03428019163212243924920841 1.50905810527398132059318
3.368023330664343895080037 -0.02851552746941968599636574 1.546538858133763572055841
3.364203378131526367411652 -0.002104477868559021143390897 1.543077716267527321747366
3.368023330664343895080037 0.02430657173230165585264828 1.546538858133763572055841
3.360742236265290117103177 -0.04307771626752734950294155 1.539498073319043314199916
3.360742236265290117103177 0.04307771626752733562515374 1.539498073319043314199916
3.353461141866235895037107 0.02899614663808674011602484 1.532457288504323056343992
3.356922283732472145345582 0.002585097037226057048453498 1.536036931452806841846837
3.353461141866235895037107 -0.02382595256363460867188309 1.532457288504323056343992
2.842431190325481082936676 0.004412555213494590358735969 1.561981364888013645852993
2.8348623806509616329663 -0.01666666666666664214924154 1.569637467932228691580576
2.842431190325481082936676 -0.02892077811983874771617486 1.561981364888013645852993
2.818932023962561927987736 -0.01519404671013392139899967 1.58486238065096252114472
2.810570476948680784801127 -0.03338976069442958077848616 1.592431190325481304981281
2.810570476948680784801127 0.003001667274161715862762501 1.592431190325481304981281
2.827300177930846203366855 -0.03486238065096231020234541 1.562075265212112373802711
2.81136982124244605429908 -0.03486238065096231020234541 1.57730017793084642541146
2.81136982124244605429908 0.03486238065096233101902712 1.577300177930846647456065
2.827300177930846203366855 0.03486238065096233795792102 1.562075265212112373802711
2.878596289251977413670147 0.0003417194469485523183362174 1.571745430194970483128714
2.87705443421120010683012 -0.003425429528503689396989884 1.573629004682696619354942
2.874763360957164781694928 -0.001156716979566672909296443 1.575920077936731944490134
2.874014142743907207488974 0.0003417194469485594740705559 1.576327576703041133399097
2.868981754197538869277651 -0.02043381564211889725446447 1.565556324669035603847078
2.86459854128105373405333 -0.03675876286183705349275286 1.557052131612228329515801
2.866259167900357063274441 -0.01816510309318187729732408 1.56885763882785722600488
2.858935706099953399927927 -0.03367505278028185000671613 1.560377460047887243632658
2.866690680943503544142459 0.01816510309318192586958141 1.56784739792307092898227
2.858186487886696269811182 0.03449005031290006129118808 1.560784958814195988452411
2.872671221294715415695009 0.02043381564211893541838094 1.565124811625889122979061
2.863056686240276427213303 0.03367505278028187776229174 1.55893570609995402165282
2.874213076335492278445827 -0.0166666666666666525575824 1.563241237138162986752832
2.868288008378230280470689 -0.02166594352418420646455566 1.556620618569081848647784
2.868288008378230280470689 0.0116673898091491298756317 1.556620618569081404558574
2.857754974843549788943164 0.004040224875432311957279552 1.561795199718982285475022
2.865509949687099933157697 -0.01378315877080105340823923 1.569265137594166414913843
2.857754974843549788943164 -0.03160654241703444305988668 1.561795199718982729564232
3.393247285898404186355037 0.01125865980522207723812933 1.56801137390681799566039
3.386494571796808017438707 -0.01666666666666666296592325 1.573876615801015121931528
3.393247285898404186355037 -0.02207467352811125563261108 1.56801137390681799566039
3.377880136627384288772191 -0.0005622036721813708374032026 1.578442340299565760375344
3.376018415559556729022006 0.003161238463474679016851354 1.577142822903919050503418
3.371489825234193382641479 -0.02790501525666987114870921 1.564208730835140004344908
3.383861713630791356877126 -0.03649457179680801188759176 1.563962663235944683393086
3.372260962332382039363665 -0.01180055226218457847808807 1.572823166004563955056028
3.372260962332382483452875 0.01180055226218456113085331 1.572823166004564399145238
3.371489825234193382641479 0.02790501525666986074036835 1.564208730835140004344908
3.383861713630791356877126 0.03649457179680801188759176 1.563962663235944461348481
3.368856967068176722079897 -0.02684825466175420199954615 1.554294778270068899672651
3.365870650939192021411372 -0.002104477868559028082284801 1.558589556540138199025591
3.368856967068176722079897 0.02263929892463616838638174 1.554294778270069343761861
3.366641788037380678133559 0.0005622036721813517554449668 1.567203991709562593825922
3.37039924126455447961348 -0.0080771101265285291659346 1.571523648608917245184102
3.433054844898102420103214 -0.0107636981205593007526744 1.593818543018662214905135
3.425799607921057976511747 0.01020672125009793040906203 1.587637086037324118947822
3.433054844898102420103214 0.03117714062075514075411675 1.593818543018662214905135
3.41961815093972010259904 -0.03763708603732387331097797 1.581200587022869363806876
3.41961815093972010259904 0.03763708603732389412765968 1.581200587022868919717666
3.406181456981338229184075 0.01240117404573795774347378 1.568582631027076068619408
3.412362913962676103096783 -0.008569245324919249132133992 1.575019130041531045804959
3.406181456981338229184075 -0.02953966469557647855914695 1.568582631027076068619408
2.745813556807680022586737 0.02483154383640776008412843 1.629017987028726910381238
2.741627113615360933351894 -0.01666666666666668031315801 1.633229328725884332840224
2.745813556807680022586737 -0.008501789496925576256058932 1.629017987028726910381238
2.733171541907726265208112 -0.0002444767486042773445460707 1.641627113615360844534052
2.728902413392408909942333 -0.02520492369729876447337347 1.64581355680768059990271
2.728902413392409798120752 0.0247159702000902259388937 1.64581355680768059990271
2.737443470870220441071297 -0.04162711361536117204984464 1.629045685980743174425811
2.728987899162584884749094 -0.04162711361536116511095074 1.637443470870220352253455
2.728987899162584884749094 0.04162711361536115123316293 1.637443470870220352253455
2.737443470870219996982087 0.04162711361536115123316293 1.629045685980743396470416
2.792101766139296614710474 0.001706038158827589967803107 1.609604272019531601145559
2.784203532278592962967423 -0.01666666666666666296592325 1.617954785218710167526979
2.792101766139296614710474 -0.0316272951745057429029373 1.609604272019531601145559
2.771776769500388315492501 -0.008186858889741929420913458 1.629963628390130203626995
2.76724824058288731976063 0.0008701989452593062454935358 1.633621958362371673345592
2.776321680945138759000201 -0.03420353227859264377830328 1.610072933885255963559757
2.76300833669442491569157 -0.02572372450166791890691087 1.629464077361357121631613
2.759655014278472151545429 -0.03420353227859265071719719 1.617923896055661447945795
2.763894918166934111525279 0.02572372450166790502912306 1.622081777056675999659774
2.755126485360970711724349 0.04152019222307525014858953 1.621582226027903361753602
2.776321680945138314910992 0.03420353227859265071719719 1.610072933885256185604362
2.75423990388846195997985 0.02472462244412185553010808 1.628964526332584483725441
2.758479807776924364048909 -0.000128903112286744364828675 1.63312240733359859135021
2.75423990388846195997985 -0.02498242866869532924356534 1.628964526332584039636231
2.803249818803829285229767 -0.04527324663111598895826049 1.602513508825562649207086
2.80251350882556282684277 -0.04527324663111598895826049 1.602931428432346816492782
2.80251350882556238275356 0.04527324663111598895826049 1.602931428432346594448177
2.803249818803828397051348 0.04527324663111598895826049 1.602513508825562427162481
2.803835996640975380955751 -0.04380062667458326647329514 1.602363376684442286546073
2.805463063347150232118565 -0.01519404671013394915457528 1.604726753368884262229699
2.803835996640974492777332 0.013412533254315373368315 1.602363376684442286546073
2.804726753368884217820778 -0.01583082745309839778347083 1.605144672975668429515395
2.802363376684442020092547 0.01277575251135092300469598 1.603199215898010621117464
2.802363376684442464181757 -0.04443740741754771683691416 1.603199215898010621117464
3.437203035987547394825015 -0.01377244726792372850332491 1.614244073711823546091182
3.443601517993773342141139 0.006763922052957613458012975 1.609292701404968939371543
3.443601517993773342141139 -0.0343088165888050661278541 1.609292701404968939371543
3.440371545285489052190542 -0.0372030359875480109987933 1.607845591705597598775057
3.440371545285489052190542 0.0372030359875480109987933 1.607845591705597598775057
3.433973063279263104874417 -0.01666666666666666990481716 1.612796964012451983450092
3.437141572577204762239944 -0.002590242762354086521192631 1.606398482006226036133967
3.437141572577204762239944 0.03074309057097925415580342 1.606398482006226036133967
3.490446947439905578391972 -0.002195406702123166471640747 1.642642354142029414987292
3.481259942506908178216918 0.01642263491526906038497913 1.63528470828405869674782
3.490446947439905578391972 0.03504067653266128290479031 1.642642354142029414987292
3.473902296648938126111261 -0.03528470828405889936352224 1.62742279717473437017361
3.473902296648938126111261 0.03528470828405889242462834 1.62742279717473437017361
3.457357645857970229741341 0.004845594349468499220656703 1.612203240207439103315323
3.464715291715940725936207 -0.01377244726792372850332491 1.620065151316763429889534
3.457357645857970229741341 -0.03239048888531595449258305 1.612203240207439103315323
2.694337333531972689115719 0.01589521932841628237831344 1.671557885796444375969827
2.688674667063944312417334 -0.01666666666666668031315801 1.677284943196179600732876
2.694337333531972689115719 -0.01743811400491705743132087 1.671557885796444375969827
2.677248785417139842479628 -0.006185096626942132927440277 1.688674667063943646283519
2.671485570238363749240307 -0.0281930970242193802699493 1.694337333531972022981904
2.671485570238363749240307 0.0158229037703351248234096 1.694337333531972022981904
2.68301972962416357404436 -0.03867466706394392939039051 1.671630005756398862359902
2.671593847977359104106654 -0.0386746670639439224514966 1.683019729624162907910545
2.671593847977358215928234 0.0386746670639439155126027 1.683019729624162907910545
2.68301972962416357404436 0.0386746670639439155126027 1.671630005756398862359902
2.733283354168932977046325 0.0006499526866928235623727117 1.667366598517759701536534
2.729629141599485997460306 -0.007958377825586449016981305 1.671670763773899226478648
2.723119710008756744201719 -0.00506048535587309052802274 1.678180195364629145871049
2.720264490987473582350731 0.0006499526866928321275698743 1.680385461699219540321337
2.721659784514104174490967 -0.02527499717894596958922548 1.663701406688517181464704
2.721212569796455316151196 -0.04129171115891976107104 1.655043097011837049947758
2.714461400332076834729378 -0.02237710470923261543707561 1.674798828486852464436652
2.709347262267977729521817 -0.03398328602002621823263695 1.664624205066879802927815
2.71515035292337403305396 0.02237710470923257033426523 1.670210838279246434723291
2.706492043246694123581619 0.03839381868920638263276146 1.666829471401469975333498
2.729181926881837583209744 0.02527499717894591407807425 1.663012454097219761095516
2.717558357227008336565177 0.03398328602002618353816743 1.659347262267977018979082
2.732836139451284118706553 -0.01666666666666669419094582 1.658708288841080014108798
2.728734712164188724869973 -0.008952765589684531788439159 1.65435414442054007366778
2.728734712164188724869973 0.02438056774364880108230125 1.654354144420540295712385
2.705803090655397369346247 0.01561437095367875123319568 1.671417461609075560957649
2.7116061813107941169676 -0.006112781068860984046153817 1.677004094821442636842335
2.705803090655397369346247 -0.02783993309140070371299203 1.671417461609075560957649
3.49965759269149234711449 -0.01655466138953787941234808 1.650398409947071431957966
3.499828796345746173557245 0.01643626463528832098992538 1.650283208931382361583928
3.499828796345746173557245 -0.04954558741436407981462153 1.650283208931382583628533
3.499706780470047462472394 -0.04965759269149287724598452 1.65022720629281849369363
3.499706780470047462472394 0.0496575926914928494904089 1.650227206292817827559816
3.499535576815794080118849 -0.01666666666666668378260496 1.650342407308507342023063
3.499584764594349195476752 0.01608022760676191403872437 1.650171203654253737624913
3.499584764594348307298333 0.04941356094009524690946478 1.650171203654253737624913
3.543956638095754563266837 0.01497325183608806155322046 1.671016613740333500714996
3.537913276191508860080148 -0.01666666666666665602702935 1.676443264013798506439912
3.543956638095754563266837 -0.01836008149724527305224342 1.671016613740333500714996
3.529181626119774151106867 -0.0007966334768031146104996787 1.679978259596577316870025
3.526493337952284257141855 0.004579942858175693742861512 1.678086604905891121575223
3.527703615104521794876291 -0.03791327619150900579692021 1.66623360292681166328066
3.518558321357352358660364 -0.02204324300164546904245988 1.66941095747272072458145
3.511036948437855187421519 -0.03791327619150901273581411 1.661092951076419854672395
3.51897196503278708590301 0.02204324300164547945080074 1.669768598509590251666168
3.508348660270365293456507 0.03412996681013646255165028 1.659201296385733437332988
3.527703615104521794876291 0.03791327619150901273581411 1.66623360292681166328066
3.507935016594931454392281 0.0009086387539319316659219838 1.658843655348864132292874
3.515870033189862908784562 -0.01655466138953785512621941 1.667519302782034529286648
3.507935016594931454392281 -0.0340179615330076581813934 1.658843655348864132292874
3.580171087609430813358813 -0.01418221548817471741599228 1.69435330309760545652864
3.573555589158306844410617 0.007857724040369537532590982 1.688706606195210735421597
3.580171087609430813358813 0.02989766356891379942006814 1.69435330309760545652864
3.567908892255912789437389 -0.03870660619521093526174127 1.682883290919894969661641
3.567908892255912789437389 0.03870660619521091444505956 1.682883290919894969661641
3.555646696902394765515965 0.01576658183978996499718939 1.671413278742184482794642
3.561293393804788820489193 -0.006273357688754298625011252 1.677236594017500248554597
3.555646696902394765515965 -0.02831329721729855530831799 1.671413278742184482794642
2.680503793191986616761824 0.0011896689551378287000305 1.720685875763151573281107
2.678644148312346651152893 -0.004908958714417072100033579 1.723735189597929151616995
2.668994621699938285530607 -0.01439009451039928617899211 1.734523002288471005272186
2.661204739967169885517251 -0.03224643013220378218175455 1.742261501144235502636093
2.661204739967170329606461 0.003466241111405192476535575 1.742261501144235502636093
2.671013817416597380116627 -0.02276529433622156289862559 1.716104858702179658536124
2.667326434625557851632038 -0.03824229204775041884856179 1.70717669089127754844526
2.661364290804189458583551 -0.03452300228847114682562136 1.72689267139272173423592
2.661364290804189014494341 0.03452300228847115376451526 1.726892671392721512191315
2.674956765521307122668304 0.0227652943362215837153073 1.71480702178702704152613
2.665466789745917441933898 0.03452300228847115376451526 1.710226004726054904736543
2.676816410400946644188025 -0.0166666666666666594964763 1.711757707952249463190242
2.671269382730266706005295 -0.01794280457919170124192476 1.705878853976124931435265
2.671269382730266706005295 0.0153905287541416350982626 1.705878853976124931435265
3.591724755659625234471832 0.003585374330526918881800746 1.711860618670900890947451
3.583449511319251712393452 -0.01666666666666666990481716 1.71851744282488949622234
3.591724755659625234471832 -0.02974795900280641572366314 1.711860618670900890947451
3.575102231316404477468041 -2.789333902626234742570983e-05 1.725130124655432029001645