# geometry NO_DATA 600
#  x  y  z
3.049088485483395505326598 0.04768412048605602526762937 1.598595635002659332002395
3.04817697096679163237809 -0.01666666666666651724915127 1.597930545726424123031961
3.049088485483395505326598 0.01435078715272269933578286 1.598595635002659332002395
3.047655768594483394196004 0.0156242619220492706677561 1.598176970966792342920826
3.048046080738777696694797 -0.01588604237807679508964753 1.599088485483396215869334
3.048046080738777696694797 0.04713456622217519070838776 1.599088485483395993824729
3.0490012504914076885143 -0.04817697096679258300655491 1.598754825251039957123567
3.048480048119098562153795 -0.04817697096679258300655491 1.599001250491408399057036
3.048480048119099450332214 0.0481769709667927426011147 1.599001250491408399057036
3.04900125049140813260351 0.04817697096679272872332689 1.598754825251039957123567
3.087080449913751412083229 0.008874038740151047113813298 1.575689902789658036752485
3.093540224956875750450536 0.02928782198723558008457424 1.582000480449942347860315
3.093540224956875750450536 -0.01153974450693344595830769 1.582000480449942347860315
3.083825873119542926303893 -0.02130531001005252569879822 1.580078756539124995583734
3.092604969834360506553139 -0.03708044991375120114085462 1.584961539290684173764134
3.073618981496000657216427 -0.03422486009630132386405421 1.590039222922298600693125
3.073618981496000657216427 0.03422486009630127529179688 1.590039222922298600693125
3.083825873119542482214683 0.02130531001005243896262442 1.580078756539124995583734
3.092604969834360506553139 0.0370804499137511595074912 1.584961539290684395808739
3.078301353198934720012403 -0.0008915267629680319761559248 1.57080712003809819243827
3.075982031527241478130463 0.003747116580417778064493461 1.572234914946823325365699
3.065775139903698764953788 0.0161738161859299109379684 1.58219538132999693047509
3.057887569951848849569842 0.03373200961556456489720546 1.590728052804445846746262
3.057887569951848849569842 -0.001384377243704696183734804 1.590728052804445846746262
3.135920939138197027773458 0.0124111866953460978080237 1.578617987542809020240497
3.142960469569098691522413 0.03166545916687660972010931 1.586117383792913893003629
3.142960469569098691522413 -0.006843085776184417573508867 1.586117383792913893003629
3.129711134584677978409673 -0.0229398778798641095333366 1.577123528779813987910075
3.139887270622177872780867 -0.03592093913819717487800887 1.585171924831653811338583
3.120083998348912590614646 -0.03701893874166692355309749 1.582854351052321195680861
3.120083998348912590614646 0.03701893874166692355309749 1.582854351052321861814676
3.129711134584677978409673 0.0229398778798641095333366 1.577123528779814209954679
3.139887270622177872780867 0.03592093913819718181690277 1.585171924831653811338583
3.125744803100696689313054 -0.003685605408333592850761429 1.570569591490969196811989
3.122608197494097570512395 0.002587605804863850247204971 1.570020591689234468191216
3.112981061258332182717368 0.008874038740151087012453246 1.575751413961741898006608
3.10649053062916635781221 0.02922631081515134759962748 1.582031236035984500531981
3.10649053062916635781221 -0.01147823333484917357472099 1.582031236035984278487376
3.165912442305782725782137 -0.02627953049185677292243213 1.592191972797639465397879
3.169668261956432253612093 -0.008562251563244943630692774 1.58438394559527861993331
3.165912442305782281692927 0.009155027365366878722152677 1.592191972797639021308669
3.161860234754071630192129 -0.0343839455952784853187687 1.590064232811978950365983
3.161860234754071630192129 0.03438394559527849225766261 1.590064232811978728321378
3.157808027202360978691331 0.0301284656239579236303161 1.587936492826318657378692
3.165616054404721602111294 0.0124111866953461047469176 1.58225620560961832694602
3.157808027202360978691331 -0.005306092233265724544821751 1.587936492826318657378692
2.984125671996772144467513 0.01325657912577153652033957 1.630835950899446773476598
2.992062835998385850189152 0.03071558445587724631153925 1.637860409794052118925833
2.992062835998385850189152 -0.004202426204334174138221858 1.637860409794052118925833
2.981223864952117885707139 -0.01164183275276584050850204 1.642865697704884775376399
2.976313385918731846402352 0.007422895990336702068401742 1.635731395409769195481431
2.981223864952117885707139 0.02648762473343923076751771 1.642865697704884775376399
2.983189791621318143199915 -0.01765532167852654210626895 1.632397452957879524504392
2.991621283128861996658543 -0.03412567199677238316546379 1.639123900694976043723727
2.981594591251380599317145 -0.01926104509152336274890871 1.633992653327817068387162
2.985404197420759686565361 -0.03573139540976920380810355 1.64242414483536092184579
2.981594591251380599317145 0.01926104509152336274890871 1.633992653327817068387162
2.985404197420759686565361 0.03573139540976920380810355 1.64242414483536092184579
2.983189791621318143199915 0.01765532167852653169792809 1.632397452957879524504392
2.991621283128861996658543 0.03412567199677236928767599 1.639123900694976043723727
2.975694180489228291008885 -0.0001963163484208318813883931 1.624109503162350920391077
2.975199852983298143271895 0.0007923386634390381516590551 1.624407514319859746620978
2.973604652613360599389125 0.002398062076435870503682279 1.626002714689797068459143
2.972503779749353203243345 -0.0001963163484208204430554734 1.627299903902225786112012
3.038167857021026652120099 -0.0353141164713892743987067 1.622022392726669259843675
3.022022392726668726936623 -0.03531411647138928133760061 1.636984015622888311014549
3.022022392726668726936623 0.03531411647138929521538842 1.636984015622888311014549
3.038167857021026652120099 0.03531411647138929521538842 1.622022392726669259843675
3.039633870353020572707692 -0.003023187882673483446033247 1.607342941764305255247791
3.030831347822967813954165 0.01562426192204914229821888 1.61468588352861086576695
3.039633870353020572707692 0.03427171172677175026155538 1.607342941764305255247791
3.014685883528610332859898 0.01325657912577155907174475 1.629647506424829916937824
3.007342941764305166429949 0.03190402893049416183091083 1.637266187556743801678749
3.007342941764305166429949 -0.005390870678951074912443886 1.637266187556743801678749
3.18845810690507436291341 0.007398244778815299578511588 1.62357434881766726775254
3.194229053452537048229942 0.02918968501722256358998919 1.629835857992945058470013
3.194229053452537048229942 -0.01439319545959199565798858 1.629835857992945280514618
3.181614594337581536365178 -0.03845810690507393131420955 1.617803402270204138346799
3.181614594337581536365178 0.03845810690507395213089126 1.617803402270204138346799
3.175843647790117962870227 -0.01666666666666663521034764 1.611541893094926347629325
3.169000135222625580411204 -0.02010414465817098733646517 1.605770946547463218223584
3.169000135222625136321994 0.0132291886751623403301048 1.605770946547463218223584
3.227598525744845403551153 0.004465676013909420510872295 1.626867150269064588030687
3.229648519882854618145984 -0.0003656877378903714286180471 1.629282832144964388021435
3.228336370527125076534958 -0.002258610973569410290684445 1.637799009347242762402175
3.224974227033385432150681 -0.02339095365414551111471475 1.643899504673621558836771
3.22497422703338587623989 0.01887373170700673563615624 1.643899504673621558836771
3.226113739480148012717109 -0.007435248543303585484764984 1.62574805174225778259256
3.21759756227786919424716 -0.02373622747207992933482501 1.629630018000610691686347
3.217770199186836599380968 -0.03779900934724281236221088 1.639265293729695871505214
3.217597562277870082425579 0.02373622747207989117090854 1.629630018000610025552533
3.217770199186836599380968 0.03779900934724277072884746 1.639265293729695871505214
3.226113739480148012717109 0.00743524854330353951459287 1.625748051742257560547955
3.224063745342138354033068 -0.002603884791503793382644316 1.623332369866357760557207
3.222578959077441851377444 0.0003656877378903245910841957 1.622213271339550733074475
3.214062781875163032907494 0.007398244778815278761829877 1.626095237597903864212867
3.207031390937582049360799 0.02666879623698572426837572 1.631096302383063356700177
3.207031390937582049360799 -0.01187230667935518235722725 1.631096302383063356700177
2.899762401741011075273491 0.04938119331735617290046747 1.699618791576344545291022
2.899524803482022683454034 -0.01666666666666666990481716 1.699452998399689551689562
2.899762401741011075273491 0.01604785998402284002972706 1.699618791576344545291022
2.899384999222375469685176 0.01638705814737179827789149 1.699524803482022727862955
2.899482793221715759557355 -0.01647107866798450115375374 1.699762401741011785816227
2.899482793221716647735775 0.04924519496272809770953671 1.699762401741011341727017
2.899735835623824975471052 -0.04952480348202296933646238 1.699664030541491843706581
2.899596031364177761702194 -0.04952480348202296933646238 1.699735835623825241924578
2.899596031364177761702194 0.04952480348202296933646238 1.699735835623825019879973
2.899735835623824975471052 0.04952480348202296933646238 1.699664030541491843706581
2.938274236919540705059717 0.006359744681362322973883217 1.673238968754472866251604
2.944137118459769997258491 0.02796731493423721195967779 1.678889292888258388813938
2.944137118459769997258491 -0.01524782557151257988969917 1.678889292888258388813938
2.934515990406510788091055 -0.02243360519252067530882044 1.67957508682030365321225
2.943262341209667454222654 -0.03827423691954155021699435 1.68316797663080786051637
2.923712205280074361013476 -0.03415936827297912092848975 1.690307066864407570250251
2.923712205280073916924266 0.03415936827297912092848975 1.69030706686440801433946
2.934515990406510788091055 0.02243360519252068918660825 1.67957508682030365321225
2.943262341209667454222654 0.03827423691954157103367606 1.68316797663080786051637
2.929527886116384483017328 -0.0008260349396457683252698034 1.669646078943968880992088
2.926644416853457997262922 0.00494090358620824163238261 1.671703513267249974205697
2.915840631727020682006923 0.01652305650199988040771615 1.682435493311354335332908
2.907920315863510296594541 0.03401575810831233143138874 1.691110039032176937112695
2.907920315863510296594541 -0.0009696451043125764706481773 1.691110039032176937112695
2.979211079347784618676087 -0.03855535672896819032740012 1.66716629801928384324583
2.967166298019282777431727 -0.03855535672896819032740012 1.678679503693297991873123
2.967166298019283221520936 0.03855535672896821114408183 1.678679503693297991873123
2.979211079347785062765297 0.03855535672896820420518793 1.66716629801928339915662
2.979811884292518531225369 -0.01446579407196483570141599 1.655722321635515914550751
2.973489424599533581528021 0.007422895990336712476742598 1.66144464327103169587474
2.979811884292518975314579 0.02931158605263823463404904 1.655722321635515914550751
2.961444643271031296194451 0.006359744681362325575968431 1.672957848945046510635848
2.955722321635515292825858 0.02824843474366384860063661 1.678748732983545099983758
2.955722321635515292825858 -0.01552894538093921653065799 1.678748732983545099983758
3.241199082177216084232896 0.001521639523149915075930783 1.667895070917692734724369
3.245599541088607598027238 0.02605405503369918190914589 1.672588765101208796437504
3.245599541088607598027238 -0.02301077598739931229232525 1.672588765101208796437504
3.236136902268489823342179 -0.04119908217721593435278749 1.663494612006300332751607
3.236136902268489823342179 0.04119908217721589271942406 1.663494612006300776840817
3.231736443357097421369417 -0.01666666666666670806873363 1.658800917822784271038472
3.22667426344837204865712 -0.01105952879635347177456062 1.654400458911392535199525
3.22667426344837204865712 0.02227380453697986109617979 1.654400458911392535199525
3.283271360274515604515955 0.01472943840664292514119893 1.68145807813212710968287
3.290182758942240326405226 -0.0009066410711938120443181832 1.689276117871045812535158
3.296565189306451149064969 0.01367150179961684232365915 1.698062771739976106744052
3.29603622100293813801386 -0.01772460327369276139597432 1.699031385869988142189868
3.29603622100293858210307 0.04506760687292601930131752 1.699031385869988142189868
3.279612754624687376292513 -0.02204664970629872933205462 1.67870611355349308446705
3.270826100755757082083619 -0.03780667530177116153478067 1.679920253850665234907069
3.280867136769796132966803 -0.0480627717399758416783051 1.691458872298229554331783
3.270826100755757526172829 0.03780667530177153623505149 1.679920253850665456951674
3.280867136769796577056013 0.04806277173997626495083324 1.691458872298229554331783
3.279612754624687376292513 0.02204664970629909709343153 1.67870611355349308446705
3.272701355956963098492452 -0.006410570228461993230739679 1.670888073814574603659366
3.26904275030713487026901 0.0009066410711941787214929178 1.668136109235940800488152
3.260256096438205020149326 0.001521639523149909221239051 1.669350249533112950928171
3.255128048219102510074663 0.02459887641827855978005068 1.67331635440891912658401
3.255128048219102510074663 -0.02155559737197869363267699 1.67331635440891912658401
2.843638920370688882854893 0.03497199889117717785946837 1.741333078520488353291285
2.837277840741377232802733 -0.01666666666666655541306774 1.736124919816277145656613
2.843638920370688882854893 0.001638665557843848458174918 1.741333078520488353291285
2.835905092804906324488456 0.01392117079372533899883635 1.737277840741377143984892
2.840893424497747066226339 -0.006690003280985298318717103 1.743638920370688794037051
2.840893424497747066226339 0.03453234486843587136561951 1.743638920370688794037051
2.843345242136274819699793 -0.0372778407413771883938125 1.742192321211174510509068
2.841972494199803911385516 -0.03727784074137719533270641 1.743345242136274508837346
2.841972494199803467296306 0.03727784074137729941611497 1.743345242136274508837346
2.843345242136274819699793 0.03727784074137729941611497 1.742192321211174510509068
2.889048170499719958570495 -0.03498094554103052533644558 1.722521308092700431657818
2.872521308092700564884581 -0.03498094554103051839755167 1.738035053834267040784312
2.872521308092700564884581 0.03498094554103053921423339 1.738035053834267040784312
2.889048170499719958570495 0.03498094554103053921423339 1.722521308092700431657818
2.890563252043522712853019 -0.001927220726992058888460413 1.707509527229484902477452
2.881545916865988488098083 0.01638705814737181215567929 1.71501905445896918323001
2.890563252043522712853019 0.03470133702173566758730772 1.707509527229484458388242
2.865019054458969538501378 0.01436082481646655702178794 1.730532800200535792356504
2.8575095272294843695704 0.03267510369083041071869289 1.73853701871261767664123
2.8575095272294843695704 -0.003953454057897308818181337 1.73853701871261767664123
3.298610450053867992892265 -0.01381641219993165643764588 1.702814677179499636139326
3.2993052250269343517175 0.01812737118726902296739212 1.703545029439800462256471
3.2993052250269343517175 -0.04576019558713263768456869 1.703545029439800906345681
3.297807642593408861131365 -0.04861045005386734063623777 1.7021199022064337214033
3.297807642593409305220575 0.04861045005386766676425125 1.702119902206433055269486
3.29711286762034250230613 -0.01666666666666634724625062 1.701389549946132451196945
3.296310060159883370545231 0.0122819518534840761009308 1.70069477497306609237171
3.29631006015988425872365 0.04561528518681740723694773 1.70069477497306609237171
3.335498433453232269840782 0.01372316459684318375178425 1.729696482178522787265251
3.342749216726615735240102 0.03255493138340885550530146 1.737640614536893668429229
3.342749216726615735240102 -0.005108602189722475858668638 1.737640614536893668429229
3.312478780588288707065203 -0.03394147303811373417303798 1.710313680468389385680439
3.328366967047395874601534 -0.03549843345323233645416394 1.724730115892584958459111
3.303062897195006009098961 -0.0484430395848813935555377 1.704488024428372883178895
3.303062897195005565009751 0.0484430395848817543780207 1.704488024428371995000475
3.312478780588288262975993 0.03394147303811408111773318 1.710313680468388941591229
3.328366967047394986423114 0.03549843345323232951527004 1.724730115892584736414506
3.319610246994125546393661 -0.01510970625154807629730858 1.715280046754326992441975
3.31097284380840140016744 0.002165100119899347926033517 1.708807743688502300827281
3.301556960415118702201198 -0.01381641219993162000845288 1.702982087648485576281132
3.300778480207559262282757 0.01795996071828311752005547 1.703628734674293321305072
3.300778480207560150461177 -0.04559278511814669754276252 1.703628734674293987438887
3.360567164759800995454952 -0.03522174858005251013581827 1.745788913339853865025475
3.361600212370119411531277 -0.01031058856701101006381194 1.74157782667970773005095
3.360567164759800995454952 0.01460057144603025582052513 1.745788913339853865025475
3.357389125709973498601357 -0.04157782667970792711553685 1.744317162304942048223211
3.357389125709972610422938 0.04157782667970816997682348 1.744317162304942492312421
3.354211086660145557658552 0.03863432460988469596685491 1.742845411270030675510156
3.358422173320291470588472 0.01372316459684342661307088 1.740106075644796135293291
3.354211086660145557658552 -0.01118799541619807519365892 1.742845411270030453465552
2.837649070393752914753804 -0.005064230380652100411975614 1.792713300774405604798289
2.829754584035268027975007 0.01369570450149274615236905 1.785426601548811165187658
2.837649070393752914753804 0.03245563938363758837990503 1.792713300774405604798289
2.838125053196256963872202 -0.03513245697623655627861439 1.772831134466061442367391
2.830117833691655704342338 -0.02055905852504806910485691 1.782211101907133610211531
2.837865247763853293605507 -0.03542660154881151213235313 1.791443997061918702584649
2.830117833691655704342338 0.02055905852504806910485691 1.782211101907133610211531
2.837865247763853293605507 0.03542660154881151213235313 1.791443997061918702584649
2.838125053196256963872202 0.03513245697623654933972048 1.772831134466061442367391
2.838021608972273401860775 -0.004544619515844656662539869 1.757433771511881737126259
2.83016146175395899575733 0.01392117079372523491542779 1.764867543023763474252519
2.838021608972273401860775 0.03238696110329511435033112 1.757433771511881737126259
2.822154242249357736227466 0.002093268215478180996336199 1.774247510464835642096659
2.822007169963070438711839 -0.001799123642903222106831373 1.776193706394026294859145
3.388070020485122402220668 0.007914007555981580899207017 1.774220316626201388032769
3.394035010242561600790623 0.02931736137443759215859274 1.780545663980086956712512
3.394035010242561600790623 -0.0134893462624744234212848 1.780545663980086956712512
3.380546382625722490189446 -0.03807002048512267422530897 1.768255326868762411507419
3.380546382625722046100236 0.03807002048512267422530897 1.768255326868762633552024
3.374581392868283735708701 -0.01666666666666666990481716 1.76192997951487706487228
3.367057755008883379588269 -0.02224056808188857453645326 1.75596498975743853243614
3.367057755008882935499059 0.01109276525144475313011672 1.75596498975743853243614
3.429857744015550657934455 0.008673567265586733243676321 1.778815823250036176617073
3.433934047456965288347419 -0.0005209603827575857168744045 1.783413087074207981075347
3.436252299070713611683914 0.005157463610253668929994664 1.792006900598919871825387
3.434494247243047304607444 -0.02018277032199973508586055 1.796003450299459958117154
3.434494247243046860518234 0.03049769754250727243904961 1.796003450299459958117154
3.428186634708507263269439 -0.01201578587967401523517452 1.777665674325749955997367
3.419592821183795372519398 -0.0281614921635832994584181 1.781883158295119340408519
3.423582182104587534610118 -0.04200690059892026734233994 1.791627120744117451778266
3.419592821183794928430189 0.02816149216358308088326012 1.781883158295119118363914
3.423582182104587090520909 0.04200690059892007305331063 1.791627120744117451778266
3.428186634708506819180229 0.01201578587967379666001655 1.777665674325749733952762
3.424110331267092632856475 -0.00282125823132969421463967 1.773068410501577929494488
3.422439221960048350013039 0.0005209603827573688764399074 1.771918261577291708874782
3.413845408435336459262999 0.007914007555981575695036589 1.776135745546661093285934
3.406922704217667963177973 0.02740193245397793547768472 1.781503378440316698316792
3.406922704217668851356393 -0.01157391734201477541399417 1.781503378440316698316792
2.839925205967272603402307 -0.01362777528312764108164856 1.811594239724496846477564
2.84496260298363612406547 0.009630764017478492602930551 1.808076288399902420422904
2.84496260298363612406547 -0.0368863145837337730315042 1.808076288399902420422904
2.843477121901049287089336 -0.03992520596727279491577889 1.806556842708133103769796
2.843477121901049287089336 0.03992520596727279491577889 1.806556842708133103769796
2.838439724884685322336964 -0.01666666666666666296592325 1.810074794032727085735246
2.841991640818462006023992 0.003620910468765549568292972 1.805037397016363343027479
2.841991640818462006023992 0.03695424380209887810222469 1.805037397016363343027479
2.888752557521856445532649 -0.004047146372537856195972239 1.842799703894394847125682
2.880176722919336018691183 0.01488559474958505053632241 1.835599407788789605433522
2.888752557521856445532649 0.03381833587170794686027619 1.842799703894394847125682
2.872976426813730554954418 -0.03559940778878956796349442 1.827652482919497778368623
2.872976426813730554954418 0.03559940778878956796349442 1.827652482919497778368623
2.857200296105604664376187 0.005304965838995261313837393 1.812505261944600265522354
2.864400592211209684023743 -0.01362777528312763587747813 1.820452186813892314631858
2.857200296105604664376187 -0.03256051640525053914032583 1.812505261944600265522354
3.444766014910426665807108 -0.005933550632475947592125998 1.810600543106668958159844
3.447383007455212755587581 0.0221657976112838994708909 1.813350108578977826212508
3.447383007455212755587581 -0.03403289887623563159113615 1.813350108578977826212508
3.441628405927006362219345 -0.04476601491042651176366363 1.807983550561882424290161
3.441628405927006362219345 0.04476601491042634523020993 1.807983550561882424290161
3.439011413382220272438872 -0.0166666666666668329688239 1.805233985089573334192892
3.435873804398799968851108 -7.652147931977899841544249e-05 1.802616992544786578278604
3.435873804398799968851108 0.03325681185401355155484282 1.802616992544786578278604
3.485069427252915463810723 0.01455775255208484504632072 1.830542782356460396187003
3.492534713626457509860757 0.03296051313833375795425695 1.83868970559229394368117
3.492534713626457509860757 -0.003845008034164095617191137 1.83868970559229394368117
3.470196913221450962794279 -0.02919777414978688701019394 1.818460819301868980346626
3.483927753336552690655026 -0.03506942725291559148637077 1.831137202359680360430616
3.460995532928325957300331 -0.04412834689687129829938073 1.816362090945422114174335
3.46099553292832640138954 0.04412834689687111788813922 1.816362090945422114174335
3.470196913221450962794279 0.02919777414978672047674024 1.818460819301868980346626
3.483927753336553578833445 0.03506942725291559842526468 1.831137202359680360430616
3.471338587137813291860766 -0.01079501356353794634668208 1.817866399298649016103013
3.465073033396253165960843 0.001736093919582094250581017 1.81333693947667118351319
3.455871653103128160466895 -0.005933550632475957133105116 1.811238211120224095296294
3.452935826551564169051289 0.02152812959772867212882019 1.813668942585755283758431
3.452935826551564169051289 -0.03339523086268041118795935 1.813668942585755283758431
3.508382831391303469104059 -0.03861577030529696891170133 1.846998601696600683652605
3.508693513150750398210675 -0.01128523357876239086028392 1.843997203393201278487368
3.508382831391303469104059 0.0160453031477721871911335 1.846998601696601127741815
3.505692114847350993045438 -0.04399720339320124795623457 1.845944144639309891786638
3.505692114847351437134648 0.04399720339320124101734066 1.845944144639310113831243
3.503001398303398961076027 0.04188828927861940748522684 1.844889687582019321965277
3.506002796606797922152055 0.01455775255208483116853291 1.842942746335910486621401
3.503001398303398961076027 -0.01277278417444975208705493 1.844889687582019099920672
2.896840648169592746796752 -0.01556648154475484026326715 1.853709444391363092563552
2.89842032408479655103406 0.01460749995817181220991721 1.852679861037115571775757
2.89842032408479655103406 -0.04574046304768140253083075 1.852679861037115571775757
2.897529788126255390068309 -0.04684064816959332411272499 1.852129768476159288326244
2.897529788126255390068309 0.04684064816959324084599814 1.852129768476159732415454
2.895950112211052474009421 -0.01666666666666674970209705 1.853159351830406809114038
2.896639252167714673191767 0.01172624291917827646369865 1.85157967591520389305515
2.896639252167714673191767 0.04505957625251161280388601 1.85157967591520389305515
2.948181839263684267393728 0.03949258344191273334411463 1.891310744178228198109082
2.946363678527369245330192 -0.01666666666666678786601352 1.892928130984641299505711
2.948181839263684711482938 0.006159250108579390932395103 1.891310744178228198109082
2.937347901050750387241806 -0.001364888286570303810307792 1.888712789337321007465675
2.930150284310447439395375 0.01303034519403598046061177 1.882880060883588058118221
2.941153055792004256119299 -0.04636367852736942435365464 1.887717508249276310294817
2.92249939512039924593978 -0.03106190014727294723684281 1.874414375967925483479348
2.924486389125338092753736 -0.04636367852736942435365464 1.875036481686294109749724
2.932137278315385842120122 0.03106190014727283621454035 1.883502166601956462343992
2.917288772385035144907306 0.03469822161990353259763964 1.869203753232561382446875
2.941153055792003812030089 0.04636367852736931333135217 1.887717508249276310294817
2.907650889190048104637754 0.002465073408482106563643921 1.860115962598530403582231
2.915301778380096298093349 -0.01556648154475474832292292 1.868581647514192756176499
2.907650889190048104637754 -0.03359803649799161101574541 1.860115962598530403582231
2.958708411012527239591918 -0.03960405722260475214202557 1.898312468235132444149826
2.956885503153564798139996 -0.009645787419006766200135772 1.896624936470264533028285
2.958708411012527683681128 0.0203124823845913446418443 1.898312468235132444149826
2.95519797138869666497385 -0.04662493647026477727735028 1.894876920692404320689661
2.955197971388697553152269 0.04662493647026466625504781 1.894876920692404098645056
2.951687531764867422623411 0.03975384138480807932891636 1.891441373149675531095681
2.953375063529734667611137 0.009795571581209973691106718 1.893189388927536187523515
2.951687531764866978534201 -0.02016269822238801745495351 1.891441373149675531095681
3.537960957196770284127751 0.007934009039866499538029565 1.874339380656495857024879
3.543980478598384387112219 0.02922829956997055611545022 1.880620197108147539921674
3.543980478598384387112219 -0.01336028149023752581436852 1.880620197108147984010884
3.530004528475670255716068 -0.03796095719677071433917348 1.868319859254881309951202
3.530004528475670255716068 0.03796095719677068658359786 1.868319859254881309951202
3.523985007074055708642391 -0.01666666666666669766039277 1.862039042803229627054407
3.516028578352955680230707 -0.02332427638199170011334971 1.856019521401615079980729
3.516028578352955680230707 0.0100090569513416327573907 1.856019521401615079980729
3.576772664234738385857781 0.00229199393258974586096155 1.875519329697850290372685
3.57760532756681115529318 -0.0006266672684443381786262295 1.876978660298367573844303
3.571869966305693200325777 -0.01084405525379137161245957 1.885625327265922912545193
3.565301941712502475922975 -0.02980271585304781339909042 1.892812663632961411863675
3.565301941712502475922975 0.00811460534546508058251213 1.892812663632961411863675
3.574701017638642230878077 -0.006435287124782016789092953 1.874074350370198871473804
3.566054350671086670132581 -0.02247528652300435914046517 1.878354688524354276779604
3.562390636006064870144883 -0.03562532726592311516089495 1.888446334819561478468586
3.566054350671086670132581 0.02247528652300432444599565 1.878354688524354054734999
3.562390636006064870144883 0.03562532726592310822200105 1.888446334819561034379376
3.574701017638641786788867 0.00643528712478195780849477 1.874074350370198427384594
3.573868354306569461442677 -0.00351662592374793209898387 1.872615019769681810046791
3.571796707710473306462973 0.0006266672684442798485493498 1.871170040442029725014095
3.563150040742917301628268 0.007934009039866506476923469 1.8754503785961853523645
3.556575020371458339951687 0.02811730163028107812306366 1.881175696077992398613787
3.556575020371458339951687 -0.01224928355054804608725849 1.881175696077992620658392
2.995621093622134356593278 0.02509988804589476096840173 1.92947879442376013514604
2.991242187244268713186557 -0.01666666666666672541596839 1.933171037645081913325384
2.995621093622134356593278 -0.008233445287438577106509108 1.92947879442376013514604
2.982452267131046497183888 -0.0009131735597783576527733396 1.933365440690824943459347
2.978041253395689480498731 0.007908853910935828915307333 1.929867600515246195413965
2.967792784287554219702088 -0.03725301849442133605982974 1.914282344663725377031938
2.982464866579297879667365 -0.04124218724426923637915721 1.920883277356280949277334
2.972159091217168924714542 -0.02149952538753296255036318 1.923072264776947593034606
2.972159091217168924714542 0.02149952538753275438354606 1.923072264776947815079211
2.967792784287555107880507 0.03725301849442114177080043 1.914282344663725377031938
2.982464866579297879667365 0.04124218724426917392911207 1.920883277356280949277334
2.959015463622583386182896 -0.0389899520024920842597993 1.901994584374924190939282
2.957499608373677535411161 -0.009645787419006787016817484 1.903989168749848248651801
2.959015463622583830272106 0.01969837716447864900404241 1.901994584374924190939282
2.961865915303291352245196 0.0009131735597781507869988293 1.91277908886307046465447