# geometry NO_DATA 644
#  x  y  z
3.097187085773891901396837 0.03503112755882033246823681 1.487844041784927684446416
3.094374171547784602154252 -0.01666666666666666990481716 1.489702649553302338247818
3.097187085773891901396837 0.001697794225487000681698579 1.487844041784927684446416
3.084893881911192181632941 -0.00229391260651797207828495 1.494374171547784735381015
3.078226506500707504443426 -0.03000141748763610061168094 1.49718708577389247871281
3.078226506500707504443426 0.02541359227460015385302583 1.49718708577389247871281
3.093399796907257304212635 -0.04437417154778479366772359 1.488728274912775484395411
3.083919507270665327780534 -0.04437417154778479366772359 1.493399796907257881528608
3.083919507270665327780534 0.04437417154778479366772359 1.493399796907257881528608
3.093399796907257304212635 0.04437417154778479366772359 1.488728274912775484395411
3.14506321370826213978944 0.03176457880885709406104667 1.486701365100595140233963
3.140126427416523924307512 -0.01666666666666666296592325 1.485945503112690468938695
3.14506321370826213978944 -0.001568754524476231870799836 1.486701365100595140233963
3.128689120877898410810758 -0.006207946410583732588239769 1.484897067288482475078126
3.122188600631011112795932 0.006793094083190809664984933 1.484604493452178930468222
3.140871671089199068660491 -0.04012642741652414080100186 1.486690746785365835336279
3.116959240502969130659494 -0.02966770716044121042331838 1.485162331585738293426857
3.124205004422532461205719 -0.04012642741652414773989577 1.486200149094717204434346
3.129434364550573555163737 0.02966770716044121042331838 1.48564231096115784147571
3.117704484175645163190893 0.03954127974391706545898018 1.485907575258413659824441
3.140871671089199512749701 0.04012642741652414080100186 1.486690746785365835336279
3.10522936012804118277586 0.03019823575495260772894035 1.485427595882994111775588
3.110458720256082276733878 0.007323622677702206970606902 1.484869757749434526772347
3.10522936012804118277586 -0.01555099039954819031827959 1.485427595882994111775588
3.167313027814271819693204 -0.03022590944734907664193102 1.497538937261621017071889
3.16234810801470445085215 -0.001814701590773917794230385 1.495077874523241812099172
3.167313027814271819693204 0.02659650626580124105347025 1.497538937261621017071889
3.159887045276325245879434 -0.04507787452324182875251779 1.49335801295778702879602
3.159887045276325245879434 0.04507787452324182875251779 1.493358012957787472885229
3.152461062738379116154874 0.03671602591557478201256259 1.489177088653953706653965
3.154922125476757877038381 0.008304818058999619695415007 1.490896950219408267912513
3.152461062738379116154874 -0.02010638979757553568283868 1.489177088653953706653965
2.999392587946374977292407 0.04579062251162416968819358 1.546398034565249490768224
2.998785175892749510495605 -0.01666666666666666990481716 1.547287899202186789437974
2.999392587946374533203198 0.01245728917829083855217664 1.546398034565249268723619
2.99682890079758568191437 0.0127541164763383067098923 1.548785175892749776949131
2.995480037756046431951518 -0.0193643927497446910468426 1.549392587946374799656724
2.995480037756046431951518 0.04487262570242130099718025 1.549392587946374799656724
2.998220014110357656278438 -0.04878517589274966592682858 1.546722737419795379310017
2.996263739015193827697203 -0.04878517589274966592682858 1.548220014110358144776569
2.996263739015193827697203 0.04878517589274966592682858 1.548220014110358144776569
2.998220014110358100367648 0.04878517589274967286572249 1.546722737419795601354622
3.042693581502206701117075 0.009600374164526678799624904 1.516906792662319425346595
3.035387163004414023959043 -0.01666666666666664561868849 1.522493768584470608118409
3.042693581502206701117075 -0.02373295916880665060166855 1.516906792662319425346595
3.022430372159931710740466 -0.009246915022298168168601862 1.531677287182230173812059
3.01677999981324207467992 0.002053829671081240128283074 1.5352738298578387787785
3.034914815062093484954175 -0.03538716300441455131498003 1.522021420642150069113541
3.013070123991057336354515 -0.02796741136004608080378731 1.537486428989460307548143
3.018248148395427321588613 -0.03538716300441455825387393 1.533417538371531385621438
3.021958024217611171735598 0.02796741136004609121212816 1.531204939239909856851796
3.012597776048738129617277 0.04258024835563151838657703 1.537014081047139768543275
3.034914815062093484954175 0.03538716300441457213166174 1.522021420642150291158146
3.003709875822184294236195 0.03958569497450602214794202 1.543295570796690441284227
3.007419751644368588472389 0.01367211328554117366618215 1.541082971665068912514585
3.003709875822183850146985 -0.01224146840342367828502468 1.543295570796690441284227
3.061711234203245091123335 -0.04676268414097668746354231 1.504524857173171747959373
3.054524857173170904189874 -0.0467626841409766735857545 1.5082981294198944954843
3.054524857173171348279084 0.04676268414097670134133011 1.5082981294198944954843
3.061711234203245091123335 0.04676268414097670134133011 1.504524857173171747959373
3.065991411989659631842642 -0.03238993008082798746860576 1.501618657929511657656008
3.060423692889097324609793 -0.002293912606517956032092798 1.503237315859023315312015
3.065991411989660520021062 0.02780210486779206152663235 1.501618657929511657656008
3.053237315859022693587121 -0.009120122173221213018878828 1.507010588105746062836943
3.051618657929511702064929 0.02097589530108880453984632 1.509165202422957152705862
3.051618657929511257975719 -0.03921613964753124792483874 1.509165202422957152705862
3.19524769811390108031901 -0.00523332997522435623694026 1.510468970231820584615434
3.197623849056951073066557 0.02334770147200967982392683 1.513809487634492079166648
3.197623849056951073066557 -0.03381436142245837495057259 1.513809487634492079166648
3.188383164928230151247135 -0.04524769811390070423096077 1.508092819288770813912492
3.188383164928230151247135 0.04524769811390069729206687 1.508092819288770813912492
3.186007013985180158499588 -0.01666666666666667684371106 1.504752301886099319361279
3.179142480799509673516923 -0.006567003476873228481891509 1.502376150943049548658337
3.179142480799509673516923 0.02676632985646010612357237 1.502376150943049548658337
3.230707790883990959684979 -0.01424722963753742577264205 1.544955020521528554766633
3.222921364659702803123764 0.008996144738853158531743937 1.539910041043057065124344
3.230707790883990959684979 0.03223951911524373936668297 1.544955020521528554766633
3.217876385181231313481476 -0.03991004104305725247447967 1.534005022200583212566016
3.217876385181231313481476 0.03991004104305725941337357 1.534005022200583212566016
3.205044979478471667277972 0.01801004440116623847578659 1.523055023879637648320795
3.210089958956942712831051 -0.005233329975224342359152452 1.528960042722111722923728
3.205044979478471667277972 -0.02847670435161492666353844 1.523055023879637648320795
2.947156435581823608060859 0.0312500080159872489771189 1.584093572434163377238292
2.944312871163647038486033 -0.01666666666666664214924154 1.587781439589817100710434
2.947156435581823608060859 -0.002083325317346074352642393 1.584093572434163377238292
2.934900693325368070674131 -0.002157689009892107493554514 1.594312871163647615802006
2.928332079905264784258634 -0.02980389350687302763009967 1.597156435581823519243017
2.928332079905264784258634 0.02548851548708878922422372 1.597156435581823519243017
2.942461195335278834050996 -0.04431287116364755751529714 1.585929763761448896275397
2.933049017496998978060674 -0.04431287116364757139308495 1.592461195335278745233154
2.933049017496998978060674 0.04431287116364758527087275 1.592461195335278745233154
2.942461195335278834050996 0.04431287116364757833197885 1.585929763761448452186187
2.976288347150383373218574 -0.04027716373572760161225759 1.561577955578881127252089
2.961577955578880594345037 -0.04027716373572760161225759 1.571713190671717885749104
2.961577955578880594345037 0.04027716373572760855115149 1.571713190671717663704499
2.976288347150383373218574 0.04027716373572760855115149 1.561577955578881127252089
2.984282201275141321872297 -0.01085638059272262326282465 1.554861418132136297032275
2.97443322783577457357751 0.01275411647633831538350968 1.559722836264272771700234
2.984282201275140877783087 0.03636461354539924362150316 1.554861418132136297032275
2.959722836264271794703973 0.003603803519006344886765891 1.569858071357109086108039
2.954861418132136208214433 0.02721430058806727572684458 1.575131888317809369937095
2.954861418132136208214433 -0.02000669355005459115748323 1.575131888317809369937095
3.247202351091035055219436 -0.00992995653524667357125999 1.556166003974674527654543
3.248601175545517527609718 0.02060572788912187064402914 1.558135534585902259863133
3.248601175545517527609718 -0.04046564095961521778654912 1.558135534585902259863133
3.244765914581610566358449 -0.04720235109103521065065934 1.55476717952019249935347
3.244765914581610566358449 0.04720235109103521065065934 1.55476717952019249935347
3.243367090127128538057377 -0.0166666666666666664353702 1.55279764890896476714488
3.240930653617703605107181 0.006198495829888364672122236 1.551398824454482294754598
3.240930653617703605107181 0.03953182916322170448175655 1.551398824454482294754598
3.299418240223671805466665 0.04838275212912758471706098 1.59896451190545585419045
3.298836480447342900390595 -0.01666666666666666990481716 1.59860961628823550206846
3.299418240223671805466665 0.01504941879579424837687363 1.59896451190545585419045
3.289015138351726097454275 -0.002976017524567870116414259 1.591991155876294250504088
3.279775556032436867326396 0.01550314711401008793689726 1.585727591081573351061706
3.298409720785248744334694 -0.04883648044734342774653157 1.59818285662614045783414
3.272930231461387506897154 -0.03514583130524462362131999 1.579274604051665864545839
3.281743054118582136879922 -0.04883648044734341386874377 1.585111409184291719753901
3.288588378689631497309165 0.03514583130524462362131999 1.591564396214199206269768
3.272503471799292462662834 0.03630935085790120558923988 1.578847844389570598266914
3.298409720785248300245485 0.04883648044734341386874377 1.598182856626140679878745
3.256845324571049360429242 0.009712727655987865582609686 1.56655805222703747858759
3.263690649142098720858485 -0.009929956535246670101813038 1.573011039256944743058853
3.256845324571049360429242 -0.02957264072648120925568271 1.56655805222703747858759
3.300650893705969757263574 -0.04925346969780607098154945 1.599904363403776175189819
3.300468901747321215367492 -0.01611140955692081516703595 1.599808726807552261561796
3.300650893705969757263574 0.01703065058396444064747755 1.599904363403776175189819
3.300373265151097079694864 -0.04980872680755192571933065 1.599677499244668510414158
3.300373265151097079694864 0.04980872680755192571933065 1.599677499244668066324948
3.300095636596223958036944 0.04935499848933608962875397 1.599450635085560179504682
3.300191273192448093709572 0.01621293834845083381424047 1.599581862648444152696925
3.300095636596223958036944 -0.01692912179243442200027303 1.599450635085560179504682
2.849826807844995535390353 0.04881105435118372054548175 1.648984246506187911762709
2.849653615689991870141284 -0.01666666666666666296592325 1.649232335020588191554225
2.849826807844995535390353 0.01547772101785038767474134 1.648984246506187911762709
2.849130204815314204580545 0.01561984491731183838370001 1.64965361568999258068402
2.848779986095641092447295 -0.01736710410601372683858656 1.649826807844996467977694
2.848779986095641092447295 0.04860679394063739666709267 1.649826807844996467977694
2.849491425466768923513428 -0.04965361568999222818820982 1.649070144797365689015578
2.848968014592091257952688 -0.04965361568999222818820982 1.649491425466769856100768
2.848968014592092146131108 0.04965361568999224206599763 1.649491425466770078145373
2.849491425466769811691847 0.04965361568999222818820982 1.649070144797365689015578
2.893540225170794233378047 0.01402708085390045808504844 1.620486855683105797965027
2.887080450341589443752355 -0.01666666666666666990481716 1.625553765597745226045845
2.893540225170794233378047 -0.01930625247943287478569196 1.620486855683105797965027
2.871252384258943912698214 -0.01498946549862363065985793 1.636241849757567923262513
2.861884093005504059448185 0.003747117008256169948948733 1.641863024002751858532179
2.886137530451291954847193 -0.03708045034158949371239089 1.624610845707447737140683
2.861045492421482538958344 -0.03540324917354645273270819 1.64228034391736921193683
2.869470863784624903303211 -0.03708045034158949371239089 1.635716249781888009806607
2.870309464368646423793052 0.03540324917354645967160209 1.635298929867270434357351
2.860102572531185050053182 0.04832279883195697567366267 1.641337424027071723031668
2.886137530451291954847193 0.03708045034158948677349699 1.624610845707447293051473
2.850838600584021165218473 0.04748023749314846109204069 1.648318838077170056521936
2.851677201168042685708315 0.01582410532785817267042994 1.64790151816255292516189
2.850838600584021165218473 -0.01583202683743213656786253 1.648318838077170278566541
2.913322902666410918470774 -0.04551855054906324415942009 1.606068413838024122597403
2.906068413838023722917114 -0.04551855054906324415942009 1.61120839576084629030106
2.906068413838023278827905 0.04551855054906324415942009 1.61120839576084629030106
2.913322902666410918470774 0.04551855054906324415942009 1.606068413838024122597403
2.916749702382242848131 -0.03100957289228870733532872 1.602240724725468412614759
2.911735938279323754329653 -0.002157689009892136550172737 1.604481449450936958456282
2.916749702382242848131 0.02669419487250444811277106 1.602240724725468412614759
2.904481449450936558775993 -0.006386702821022370059333984 1.609621431373759126159939
2.902240724725468012934471 0.0224651810613742120015246 1.612520688571112970066679
2.902240724725468012934471 -0.03523858670341895038546909 1.612520688571112970066679
3.337469252863081159432568 0.007137224204516940014031423 1.624432692572510328332669
3.34373462643154084616981 0.02793981040093160977955122 1.630069264439642839903399
3.34373462643154084616981 -0.01366536199189772454731795 1.630069264439642839903399
3.327345588319746916283748 -0.03746925286308133706825174 1.618167319004051307729242
3.327345588319746916283748 0.03746925286308133706825174 1.618167319004051307729242
3.321080214751288117724926 -0.01666666666666667684371106 1.612530747136918574113906
3.310956550207953430486896 -0.02864215669383948781323568 1.606265373568459553510479
3.310956550207953430486896 0.004691176639493853731122108 1.606265373568459553510479
3.364665390381200271718853 -0.03326206853827396586753551 1.647927458919474119625193
3.360441506811389089648401 -0.004073817365992342745539823 1.645854917838948328068227
3.364665390381200271718853 0.02511443380628929425424367 1.647927458919474341669797
3.358368965730863298091435 -0.04585491783894830170043022 1.643162737688399488433788
3.358368965730863298091435 0.04585491783894828088374851 1.643162737688399710478393
3.352072541080525880374807 0.0363254753767985674728358 1.638398016457324857242384
3.354145082161052116020983 0.007137224204516930473052305 1.641090196607873696876823
3.352072541080525880374807 -0.02205102696776468917949643 1.638398016457324413153174
2.798213737921986243861738 0.03748837513003456384241829 1.68927463720804849067747
2.796427475843972221269951 -0.01666666666666667684371106 1.691957925487003411291198
2.798213737921986243861738 0.004155041796701220563337031 1.68927463720804849067747
2.791361645658256840363265 0.006535006295236214270139019 1.696427475843972132452109
2.788082077550555482048367 -0.023225802882069216531713 1.698213737921985932999291
2.788082077550555926137577 0.03629581547254165374560841 1.698213737921985932999291
2.794996864129409619437183 -0.04642747584397211024764829 1.690527313772440809458431
2.789931033943694238530497 -0.04642747584397211024764829 1.694996864129409752663946
2.789931033943694238530497 0.04642747584397209636986048 1.694996864129409530619341
2.794996864129409619437183 0.04642747584397211024764829 1.690527313772440809458431
2.82915254835787211007414 -0.03863220415137226526614 1.66300929256588325699795
2.813009292565883612269317 -0.03863220415137227220503391 1.675206408875580921247206
2.813009292565883612269317 0.03863220415137226526614 1.675206408875580921247206
2.82915254835787211007414 0.0386322041513722583272461 1.66300929256588325699795
2.837970409508292490841086 -0.006345692567393769120687175 1.655683897924314251781652
2.827511051640617001368128 0.01561984491731182624063567 1.661367795848627482158122
2.837970409508292490841086 0.03758538240201742680612895 1.655683897924314251781652
2.811367795848628503563305 0.007727565952729121764863685 1.673564912158325590496588
2.80568389792431460705302 0.02969310343743472579980391 1.680078130543709580280165
2.80568389792431460705302 -0.01423797153197647533118264 1.680078130543709580280165
3.393125195406484273519254 -0.001372165134409941786991505 1.664522055359644925331963
3.396562597703241870306101 0.02508636360540708598598769 1.668731903829014928675178
3.396562597703241870306101 -0.02783069387422696175371506 1.668731903829014928675178
3.386192355686912680567957 -0.04312519540648369203994505 1.661084653062886440366697
3.386192355686912680567957 0.04312519540648368510105115 1.661084653062886662411302
3.3827549533901546396919 -0.01666666666666667337426411 1.656874804593516437023482
3.375822113670583490829813 -0.010948621959508641338088 1.653437402296757952058215
3.375822113670583490829813 0.02238471137382468806320546 1.65343740229675817410282
3.429928563891642134819904 -0.01578675494117017311102025 1.695715318832812457117143
3.421391303696602381734237 0.008977216057788223527169613 1.691430637665624958643207
3.429928563891642134819904 0.03374118705674662016535947 1.695715318832812457117143
3.417106622529415105304906 -0.04143063766562506133883659 1.686695902932274337970853
3.417106622529415105304906 0.04143063766562506133883659 1.686695902932274115926248
3.404284681167187631700699 0.02339180586454846222377313 1.677676487031735774735353
3.40856936233437490813003 -0.00137216513440993723334238 1.682411221765086617452312
3.404284681167187631700699 -0.02613613613336833452205354 1.677676487031735774735353
2.749174067961998702003257 0.04380088291252344501192084 1.744626814950524185121594
2.748348135923997848095723 -0.01666666666666666296592325 1.746074509418260811699497
2.749174067961998702003257 0.01046754957919011908007434 1.744626814950524407166199
2.746687351889197437060375 0.01334509859706587558969559 1.748348135923997848095723
2.74585249989239787993256 -0.01833637066026557599363045 1.749174067961998924047862
2.74585249989239787993256 0.04502656785439732717302164 1.749174067961998924047862
2.747818130011686399427617 -0.04834813592399811454924929 1.745544503505948918942181
2.746157345976885544303059 -0.04834813592399811454924929 1.747818130011685955338407
2.746157345976885100213849 0.0483481359239981284270371 1.747818130011685955338407
2.747818130011685955338407 0.0483481359239981284270371 1.745544503505948696897576
2.772368950981364044139355 -0.04138931640597093286615404 1.710768114500412995226952
2.760768114500412373502058 -0.04138931640597093286615404 1.725161154661341900151683
2.760768114500412373502058 0.04138931640597094674394185 1.725161154661341900151683
2.772368950981364044139355 0.04138931640597094674394185 1.710768114500412995226952
2.777507014758917591734644 -0.01818764344406804608911266 1.704305341797014428095736
2.770211520074980171557399 0.006535006295236230750012041 1.708610683594028900600392
2.777507014758917591734644 0.03125765603454049718079588 1.704305341797014428095736
2.758610683594028945009313 0.01211941365519200730638261 1.723003723754958027569728
2.754305341797014250460052 0.0368420633944962772066134 1.733091422118873126123617
2.754305341797014250460052 -0.01260323608411226606329514 1.733091422118873126123617
3.447441275341125876963133 -0.01095770076139114534985453 1.705413207611512049766134
3.448720637670562361165594 0.01981690791306792848169849 1.706988328234712470887757
3.448720637670562361165594 -0.04173230943585021918140754 1.706988328234712470887757
3.444875912366122783225819 -0.04744127534112574373637017 1.704133845282074677385253
3.444875912366123671404239 0.04744127534112574373637017 1.704133845282074677385253
3.443596550036686299023359 -0.01666666666666666296592325 1.70255872465887425626363
3.441031187061684537553674 0.006418491398913971426876124 1.701279362329437105927354
3.441031187061684093464464 0.03975182473224729562399915 1.701279362329437105927354
3.484332513879226489450502 0.01010207355435598260140484 1.729051856231283768039475
3.492166256939612800636041 0.027767920766916538710678 1.734602483281408868975859
3.492166256939612800636041 -0.00756377365820457697731527 1.734602483281408868975859
3.472905258634631842085128 -0.02155256869066050212646601 1.721906078088738301090643
3.48318195270701558285964 -0.03433251387922722774881379 1.728900475604966624487702
3.464072335028351989905104 -0.03722005481143327021431588 1.716926817980989783407608
3.464072335028351989905104 0.03722005481143327021431588 1.716926817980989783407608
3.472905258634631842085128 0.02155256869066049865701906 1.721906078088738301090643
3.48318195270701602694885 0.03433251387922721387102598 1.728900475604966624487702
3.4740558198068431927652 -0.003886721478099944716150249 1.722057458715055888731627
3.471612868794846207265437 0.0009991805458938924928286029 1.720613688248952666270952
3.462779945188565910996203 -0.010957700761391147084578 1.715634428141204148587917
3.456389972594282600226734 0.009595687383375458429091154 1.712098938499558631320951
3.456389972594282600226734 -0.03151108890615775259824716 1.712098938499558631320951
3.510467582824344123793026 -0.03808621552337648763497668 1.748553798347720844574837
3.507403093890590461967349 -0.007645285494601483829157917 1.747107596695441689149675
3.510467582824344123793026 0.02279564453417351824193737 1.748553798347720844574837
3.505956892238311528586792 -0.0471075966954416641696568 1.745271501791565649241988
3.505956892238311528586792 0.04710759669544167804744461 1.745271501791565427197384
3.501446201652278933380558 0.04054300358313098900930882 1.741989205235410231864535
3.502892403304557866761115 0.01010207355435599127502222 1.743825300139286271772221
3.501446201652278933380558 -0.02033885647441901686760524 1.741989205235410231864535
2.743008157846504424526302 0.01077271482673722649558989 1.76776455698023249318851
2.742083615043304778424726 -0.01262180043313589246356532 1.779461814610169057004896
2.74134481062294721454009 0.01114419159242020264388717 1.79410604816007035466896
2.74153054900578840857861 -0.0162951899009836989606903 1.797053024080035088516638
2.74153054900578840857861 0.03858357308582409384012379 1.797053024080035088516638
2.742381878487070601124742 -0.04006118192653979059869584 1.779760078053935323794121
2.743668070372235590070886 -0.04595513376646923747737006 1.766040387307233228142422
2.741643074066713481329316 -0.04410604816007055589688335 1.794404311603836399413581
2.741643074066713925418526 0.04410604816007057671356506 1.794404311603836399413581
2.743369806928469323281661 0.04006118192653979753758975 1.765742123863466961353197
2.742743527569036388058521 0.04410604816007057671356506 1.777737644937169791958809
2.744294349731668525294026 -0.01666666666666667337426411 1.75404486623353084162602
2.744655998813633424049385 0.009300232363535103352614186 1.752022433116765309790708
2.744655998813633424049385 0.04263356569686843622335459 1.752022433116765309790708
3.542110773655194222442333 0.0001524271935751594919672414 1.766298773274925792975409
3.546055386827596578314115 0.02559653418210365571905385 1.770763707032644074246264
3.546055386827596578314115 -0.02529167979495334020456632 1.770763707032644074246264
3.533899410746962566065577 -0.04211077365519516613190376 1.762354160102523437103628
3.533899410746962566065577 0.04211077365519516613190376 1.762354160102523437103628
3.529954797574560210193795 -0.01666666666666666296592325 1.757889226344804711743564
3.521743434666328997906248 -0.01553451183940632307489693 1.753944613172402355871782
3.521743434666328997906248 0.01779882149392700979584347 1.753944613172402355871782
3.577467936640277290649692 -0.01862588020130715241173824 1.79609381684158497805015
3.569593243057760822978253 0.006895086815196745100298159 1.792187633683170355780589
3.577467936640277290649692 0.03241605383170063220399371 1.79609381684158497805015
3.565687059899346422753297 -0.0421876336831705570085127 1.787836697105039451827224
3.565687059899346422753297 0.04218763368317056394740661 1.787836697105039451827224
3.553906183158414222589272 0.02567339421007904659566279 1.779579577368493703559693
3.557812366316828622814228 0.0001524271935751594919672414 1.783930513946624829557663
3.553906183158414222589272 -0.02536853982292873455062221 1.779579577368493703559693
2.746891197414639496088284 -0.007697260706506986634167777 1.807593505565439517823734
2.748445598707319525999537 0.02252727004146625258695913 1.810523807252839567638603
2.748445598707319525999537 -0.03792179145448024840669987 1.810523807252839567638603
2.745684361170196652324194 -0.04689119741463990825858232 1.806039104272759709957086
2.745684361170196652324194 0.04689119741463992907526404 1.806039104272759487912481
2.744129959877516178323731 -0.01666666666666664214924154 1.803108802585359882186822
2.74292312363307333455964 0.008035389007060116800529315 1.801554401292679630230964
2.74292312363307333455964 0.04136872234039344620182277 1.801554401292679630230964
2.77021056719961666914287 -0.02649905761840715481825193 1.846709624818023920411747
2.76504084637277225411367 0.0002535253509735648229546368 1.843419249636047752005652
2.77021056719961666914287 0.02700610832035427871788968 1.846709624818023920411747
2.76175047119079630775218 -0.04341924963604738146871753 1.834527661131437170638492
2.76175047119079630775218 0.04341924963604738840761144 1.834527661131437170638492
2.7532903751819763904507 0.01905532226287371191930653 1.822345697444849976776027
2.7565807503639527809014 -0.007697260706507003114040799 1.831237285949460558143187
2.75329037518197594636149 -0.03444984367588772161683508 1.822345697444849976776027
3.59683391081748293771625 -0.009340990583508654993005749 1.80682892722409560448682
3.598416955408741291222441 0.02082625356730778004576976 1.808908720674416104046145
3.598416955408741291222441 -0.03950823473432509003178126 1.80890872067441632609075
3.593531165483006439842484 -0.04683391081748311535193352 1.805245882632837250980629
3.593531165483005995753274 0.04683391081748311535193352 1.805245882632837250980629
3.591948120891747642247083 -0.01666666666666666990481716 1.803166089182516751421304
3.588645375557271144373317 0.003728997632679841196801096 1.801583044591258175870507
3.588645375557271144373317 0.03706233096601317666962672 1.801583044591258175870507
3.635752427847319445675112 -0.006579277140245698429765753 1.842331704987565821340922
3.629378656442310280283436 0.01141746616821913591632853 1.834663409975131331819398
3.635752427847319445675112 0.02941420947668394597629415 1.842331704987565821340922
3.621710361429876900984937 -0.03466340997513148169950625 1.829327876362478066951667
3.621710361429876456895727 0.03466340997513149557729406 1.829327876362478066951667
3.607668295012433468116342 0.008655752724956179353088537 1.816324047737390090517806
3.615336590024867735593261 -0.009340990583508634176324037 1.821659581350043577430142
3.607668295012433468116342 -0.0273377338919734702571418 1.816324047737390312562411
2.793424475495861702967204 -0.001387376579471602923779305 1.864215169547736472566157
2.796712237747931428799575 0.02537043224972281366125237 1.86856705233926456699578
2.796712237747931428799575 -0.02814518540866601387095969 1.86856705233926456699578
2.788505667090084294557073 -0.04342447549586107846675276 1.860927407295666968778391
2.788505667090084294557073 0.04342447549586107846675276 1.860927407295666968778391
2.785217904838014568724702 -0.0166666666666666664353702 1.856575524504139096393374
2.780299096432237604403781 -0.0063219991531653640937094 1.853287762252069592605608
2.780299096432237604403781 0.02701133418016796877703101 1.853287762252069592605608
2.825354859747757352295139 -0.02076033317913490022776912 1.896115192926892678570994
2.818504640483539436246474 0.004803386007984037676943334 1.892230385853785223915224
2.825354859747757352295139 0.03036710519510298078582622 1.896115192926892678570994
2.814619833410432647724519 -0.04223038585378560694216787 1.887088171303823447289005
2.814619833410432647724519 0.04223038585378560694216787 1.887088171303823447289005
2.80388480707310749906469 0.02417634260764734213666749 1.878061149680754216007017
2.807769614146214287586645 -0.001387376579471602923779305 1.883203364230716214677841
2.80388480707310749906469 -0.02695109576659054928526871 1.878061149680754216007017
3.647934760146539723280057 -0.001576066160880814194869548 1.859610540106353626654823
3.648967380073270039275712 0.02969202731899198144382979 1.866123220432516216504837
3.648967380073270039275712 -0.03284415964075361460405844 1.866123220432515994460232
3.646342779824046420600325 -0.04793476014653946792876127 1.858577920179622866569957
3.646342779824045976511115 0.04793476014653946792876127 1.858577920179623532703772
3.64531015989731566051546 -0.01666666666666665602702935 1.852065239853460498764548
3.643718179574822357835728 0.009352226314758585457020956 1.851032619926730404813497
3.643718179574822357835728 0.04268555964809191138886746 1.851032619926730626858102
3.657479006159240597639837 -0.04042926520810043167220016 1.897908271367340304891513
3.656877096028609663846964 -0.0112793891400863599550064 1.895816542734680698600869
3.657479006159240597639837 0.01787048692792771870108126 1.897908271367340304891513
3.65478536739594961346711 -0.04581654273468074856090482 1.888786904953566381237806
3.65478536739594961346711 0.04581654273468073468311701 1.888786904953566381237806