# geometry NO_DATA 372
#  x  y  z
0.6339979645939741725868544 0.01399260563968529082201631 0.4313316715592017125402435
0.6419989822969870418845062 0.03132390356699287642383567 0.4386602900093647949830711
0.6419989822969870418845062 -0.00333869228762229304507958 0.4386602900093647949830711
0.6324547100715022240891017 -0.01031786339847115714640768 0.4427725734699734516652825
0.6270684948307907458087129 0.00856061687480911062686495 0.4355451469399468367171835
0.6324547100715022240891017 0.02743909714808937666541411 0.4427725734699734516652825
0.6331414301486504303539959 -0.01753511114831480394160579 0.4324767988880094948811461
0.6415766700924874221811933 -0.03399796459397425030246609 0.4395750083183557199717484
0.6317032077150230851003698 -0.01908229349428748611305906 0.433915021321636784623621
0.636085422762931340656678 -0.03554514693994693247391936 0.4423502612654737764508184
0.6317032077150230851003698 0.01908229349428748958250601 0.433915021321636784623621
0.636085422762931340656678 0.03554514693994693941281326 0.4423502612654737764508184
0.6331414301486504303539959 0.01753511114831480741105274 0.4324767988880094948811461
0.6415766700924874221811933 0.03399796459397425724135999 0.4395750083183558309940508
0.625562724650137180759657 -0.0002038132210072189089925671 0.4242334621288554874496413
0.6251285024093130582301114 0.0006646312606409187327682897 0.4244638711486722337795641
0.6236902799756858239987878 0.002211813606613601337902431 0.425902093582299523522039
0.6226862797828826012747072 -0.000203813221007220643716043 0.4271099069961099559122886
0.6853378575866374555758398 0.01203040840572843980793571 0.4290106799495601030969283
0.6926689287933187610946106 0.03070159932569923103007348 0.4360281462790763229442348
0.6926689287933187610946106 -0.006640782514242355751010738 0.436028146279076378455386
0.6823032131844254388752802 -0.0198909516039887379612594 0.4302986889311213869468986
0.6912464268597677818917191 -0.03533785758663746112695492 0.4369237734759945368523404
0.6729676177244400259169765 -0.03455309401735127960986205 0.4382972538776160331686071
0.6729676177244400259169765 0.03455309401735127960986205 0.4382972538776159776574559
0.6823032131844254388752802 0.0198909516039887379612594 0.4302986889311212204134449
0.6912464268597677818917191 0.03533785758663746112695492 0.4369237734759944258300379
0.6763946439112952235817033 -0.001219760684017946739121641 0.4223855954046869531914865
0.6747825014426341860840353 0.002004524253304121751001476 0.4227779771893299676222
0.6654469059826486621034292 0.01399260563968528908729283 0.430776542135824724866211
0.6577234529913242866427936 0.03187903299036990573123163 0.4383827252976762456349036
0.6577234529913242866427936 -0.0038938217109993214851138 0.4383827252976762456349036
0.7343537699146838182429065 0.01495485518125448318182968 0.4314569910092765359088673
0.7421768849573419091214532 0.03264195842927181123727109 0.4394446368905791100445413
0.7421768849573419091214532 -0.002732248066762826659015229 0.4394446368905791100445413
0.7315424167874928773613874 -0.01939826736931694883825372 0.4305219802061422962324855
0.7407313321814760209704787 -0.03435376991468398755191771 0.4388549898574193308675717
0.7226988651634843607851622 -0.03504449745463296406189357 0.4370474026996818972534697
0.7226988651634843607851622 0.03504449745463295712299967 0.4370474026996817862311673
0.7315424167874928773613874 0.01939826736931694189935982 0.4305219802061422962324855
0.7407313321814760209704787 0.03435376991468398061302381 0.4388549898574192753564205
0.7251648545207008966784201 -0.001711164121299639864770548 0.4231239813579995567849323
0.7237990541693757329255732 0.001020436581350641670751234 0.42277861758802509628552
0.7149555025453671053270455 0.01203040840572843286904181 0.4293040400815646417953531
0.7074777512726836414813647 0.03040823919369473049556518 0.4361748263450786478045984
0.7074777512726836414813647 -0.006347422382237861288034608 0.4361748263450786478045984
0.7591075870270913572568361 -0.03728691060239587573565956 0.446394497629487407852622
0.7599620470693145835028304 -0.01116458201008771813911302 0.4427889952589748046030138
0.7591075870270916903237435 0.01495774658222053833667164 0.4463944976294873523414708
0.7563565446988018692309197 -0.04278899525897490729864359 0.4455385918867813543897682
0.7563565446988020912755246 0.04278899525897482403191674 0.4455385918867812433674658
0.7536055023705126032496082 0.04107718377356265465616403 0.4446826861440751343934608
0.7572110047410249844546115 0.01495485518125439818037936 0.44193308951626875114016
0.7536055023705123812050033 -0.0111674734110537576814437 0.444682686144075189904612
0.5876245670210034077740602 0.007104680502151097115648426 0.4742611065634053657547042
0.5938122835105016372736486 0.02806258085648786343435646 0.4799590636583159763972617
0.5938122835105016372736486 -0.01385321985218567787667698 0.4799590636583160319084129
0.5805888663662017723510189 -0.01310435221945027012280249 0.4936932185856520161060246
0.5747546053046228564653575 0.007615418285187154807946985 0.4873864371713040322120492
0.5805888663662016613287165 0.02833518878982455024839737 0.4936932185856520161060246
0.5845260869164408124021293 -0.02153411658888897475816471 0.4802348532287706861509946
0.5931475283670503140243113 -0.03762456702100343969297214 0.4840753015971224204605505
0.5803539181536204738520723 -0.02129598673918959433892795 0.4844070219915910802122028
0.5844497354134901012656655 -0.03738643717130405580428842 0.4930284634422005263232336
0.5803539181536203628297699 0.02129598673918963250284442 0.4844070219915910802122028
0.5844497354134899902433631 0.03738643717130409049875794 0.4930284634422005263232336
0.5845260869164408124021293 0.02153411658888898516650556 0.4802348532287706861509946
0.5931475283670502030020089 0.03762456702100343275407823 0.4840753015971223094382481
0.5790031255703940171741806 -0.0005762162345522008500414701 0.4704206581950536869562995
0.5765694006092828560738894 0.004291233687670113761125634 0.4722781669216126188004523
0.5723972318464622954792276 0.004053103837970762832187965 0.4764503356844330683728117
0.5706587880447531180294618 -0.000576216234552173744987158 0.4787649957206945861010183
0.6302091534062843614094618 -0.0382688387986329162093746 0.4675955116355464680211185
0.617595511635546490225579 -0.0382688387986329231482685 0.4794811852199554191855668
0.617595511635546268180974 0.0382688387986329231482685 0.4794811852199551971409619
0.6302091534062841393648569 0.0382688387986329231482685 0.467595511635546356998816
0.6310928641421592599769497 -0.0130415552571571426165864 0.4558655806006834954047235
0.6243448029721050396290138 0.00856061687480911062686495 0.4617311612013670352183681
0.6310928641421592599769497 0.0301627890067753708092102 0.4558655806006834954047235
0.611731161201367168445131 0.007104680502151093646201474 0.4736168347857759308716652
0.6058655806006836286314865 0.02870685263411734688965282 0.4796369277695012867113178
0.605865580600683517609184 -0.01449749162981516306669683 0.4796369277695012867113178
0.788102610528959468538801 0.007997205244325143735917294 0.4742293254265366186928077
0.794051305264479756473861 0.02943314910661784522538653 0.4806125666465121959447515
0.794051305264479756473861 -0.0134387386179675247938059 0.480612566646512084922449
0.7801356809261026370450054 -0.03810261052895936445539249 0.468280630691016164224294
0.7801356809261026370450054 0.03810261052895933669981687 0.4682806306910162197354452
0.7741869861905821270653405 -0.01666666666666669419094582 0.4618973894710405869723502
0.7662200565877252955715448 -0.02306197148112829053978601 0.4559486947355202990372902
0.7662200565877254065938473 0.01027136185220504406567787 0.4559486947355202990372902
0.8267939177645331483290647 0.002859467248042076113062615 0.4760655494835089318605981
0.8280415593182981481845673 -0.0003641841405119892322028718 0.4776773751777859677858373
0.8241825451354346521171124 -0.007353844225214860655381877 0.4861928005813753728148185
0.8190758893988061561941549 -0.02687997813992360277013383 0.4930964002906876864074093
0.8190758893988061561941549 0.01217228968949386931630574 0.4930964002906876864074093
0.825294479061317476364934 -0.005858344654473168072739142 0.4749302949208054069885065
0.8167790536577281823582553 -0.02216082718062783313284214 0.4791109896132240142385683
0.8144194781780803582549311 -0.03619280058137539640705782 0.4887616695795169441396411
0.8167790536577281823582553 0.02216082718062782966339519 0.4791109896132240142385683
0.8144194781780803582549311 0.03619280058137541722373953 0.4887616695795169441396411
0.825294479061317476364934 0.00585834465447316460329219 0.4749302949208054624996578
0.8240468375075524765094315 -0.002634693265919104028516262 0.4733184692265283155521161
0.8225473988043369155676032 0.000364184140511984299082987 0.4721832146638247906800245
0.8140319734007476215609245 0.007997205244325157613705102 0.4763639093562433979300863
0.807015986700373888496074 0.02729856517691093067967678 0.4816798586113655855633908
0.807015986700373888496074 -0.01130415468826059810503182 0.4816798586113655855633908
0.5333962935440992314539699 0.009861676205122581889694899 0.5298678778917953469118629
0.5416981467720496379314454 0.02659130308255515731663543 0.5348301960997395854136016
0.541698146772049526909143 -0.006867950672309987465713466 0.5348301960997395854136016
0.5396788878356858498719362 -0.001995550964942870847407264 0.5416744388006287103110026
0.532327785716899759549392 0.01468665996964799852486649 0.5333488776012575982576891
0.5396788878356858498719362 0.0313688709042388713665872 0.5416744388006287103110026
0.5329952431154386660594469 -0.01673516920627259388365538 0.5329322829046727605373235
0.5413313476131919044220808 -0.03339629354409923145396988 0.5378658921716540364243997
0.5329559908760935771354639 -0.01668775326343089476788251 0.5329715351440178494613065
0.5403020920253376324637884 -0.03334887760125752886875006 0.5413076396417710878239404
0.5329559908760935771354639 0.01668775326343089476788251 0.5329715351440178494613065
0.5403020920253376324637884 0.03334887760125754274653787 0.5413076396417710878239404
0.5329952431154386660594469 0.01673516920627259735310233 0.5329322829046727605373235
0.5413313476131920154443833 0.03339629354409924533175769 0.5378658921716540364243997
0.5250601890463458820690335 -5.542328840025115240842685e-06 0.5249342686248140710247867
0.5250259377765429391615726 6.296021076590510199503387e-05 0.5249629775657769226171467
0.5249866855371978502375896 1.554426792420344173519149e-05 0.5250022298051220115411297
0.5249816845676558152433699 -5.542328840025119476007422e-06 0.5250127731035042488727527
0.5801283329275732647545283 -0.03800645358133961093649589 0.5179872904516460430102143
0.5679872904516460874191353 -0.03800645358133961093649589 0.531251461887540799011731
0.5679872904516460874191353 0.0380064535813396386920715 0.5312514618875406879894285
0.5801283329275730427099234 0.0380064535813396386920715 0.5179872904516460430102143
0.5802788581611839635598926 -0.01372436862948581831611605 0.5059967732093301195916979
0.5741345888945873499054073 0.007615418285187154807946985 0.5119935464186602391833958
0.5802788581611839635598926 0.02895520519986009150281703 0.5059967732093301195916979
0.5619935464186603946146192 0.009861676205122613114717467 0.5252577178545548841626101
0.5559967732093300529783164 0.0312014631197955541463962 0.532525116081119298527824
0.5559967732093300529783164 -0.01147811070955035740726036 0.532525116081119298527824
0.8384844121443114639546934 0.008278426954176385660355564 0.5239881346661099392747474
0.8442422060721557208751165 0.03009617243182123938471939 0.5307028875486872188105281
0.8442422060721558318974189 -0.01353931852346848541124302 0.5307028875486871077882256
0.8322319506262149113595683 -0.03848441214431151669028708 0.5182303407382655713320219
0.8322319506262149113595683 0.03848441214431154444586269 0.5182303407382655713320219
0.8264741566983706544391453 -0.01666666666666664908813544 0.5115155878556884028185436
0.8202216951802741018440202 -0.01886943208090333806703498 0.5057577939278441458981206
0.8202216951802741018440202 0.01446390125242999827315238 0.5057577939278441458981206
0.8751280433692883997665035 0.0001452101728010277733975364 0.5250171668035122918283264
0.8751729293142449517262094 -5.543828288802431886964778e-05 0.5251174910313568533481998
0.86793206791817401057898 -0.01442628450925388140790862 0.5334785435061342173668208
0.8606463205771464064497422 -0.03123816134872157285196081 0.5417392717530670198655685
0.8606463205771466284943472 0.002385592330213810903505323 0.5417392717530670198655685
0.8747719759295545793875704 -0.0008573450522690432857447762 0.5247165376466663699872583
0.8664109234547772153689493 -0.01746857343604768172951047 0.5288834702651985519850086
0.8595261294984402056229555 -0.03347854350613434920580502 0.5375451518968218378446977
0.8664109234547772153689493 0.01746857343604768866840438 0.5288834702651985519850086
0.8595261294984402056229555 0.03347854350613435614469893 0.5375451518968219488670002
0.8747719759295544683652679 0.0008573450522690469720321627 0.5247165376466664810095608
0.8747270899845980274278645 -0.0006566965965799911528200106 0.5246162134188218084673849
0.8743710225448639850043264 5.543828288802784252670836e-05 0.5243155842619758866263169
0.8660099700700867320080079 0.008278426954176368313120804 0.5284825168805080686240672
0.8580049850350432993906225 0.02560179021742302676867276 0.532950078655886283485188
0.8580049850350432993906225 -0.009044936309070286672984196 0.5329500786558861724628855
0.5376918437639448544729248 -0.004644192525908593695282978 0.5923360362898535402820244
0.5303418674471921390178863 0.01336121338713183205604285 0.5846720725797069917462068
0.5376918437639448544729248 0.03136661930017226040945388 0.5923360362898535402820244
0.5390396555315619675496919 -0.03427299503953832454650197 0.5733629922134048095827552
0.5310269559235512026873494 -0.01894506761924541829444912 0.5823656951699249795240121
0.5381773934702196449109124 -0.03467207257970708611516386 0.5911688593563608762337935
0.5310269559235512026873494 0.01894506761924543911113084 0.5823656951699249795240121
0.5381773934702196449109124 0.03467207257970709305405776 0.5911688593563608762337935
0.5390396555315620785719943 0.03427299503953834536318368 0.5733629922134046985604527
0.5392168291165454485636133 -0.002919668403223663055712223 0.5578635024802307551539116
0.5314036682786189569327462 0.01468665996964800893320735 0.5657270049604616879435071
0.5392168291165454485636133 0.03229298834251967398323302 0.5578635024802307551539116
0.5233909686706081920704037 0.001338739246373774061105166 0.5747297079169817468624615
0.5231914299005238078166258 -0.0009396617062049929768041689 0.5758689083932712060587278
0.8772754529216746366415691 0.001900330944181365024764352 0.5746248780225063912396877
0.877562974668973261316296 -0.001325287449584180510600562 0.5762376872193890608997435
0.8705775552504766423567162 -0.01264555138740931089502695 0.5852336642775145536532477
0.8633046140846813987224095 -0.03121254899825733758467194 0.5926168321387572657243936
0.8633046140846813987224095 0.005921446223438712325171096 0.5926168321387572657243936
0.8698950907034110890947431 -0.01989228506043220351395817 0.5685698032538268886781907
0.8617317829766936165825086 -0.03465862078291751663394749 0.5592863044484028822722621
0.8629096712849144701351634 -0.03523366427751468271667434 0.5775657803119523814316949
0.8629096712849144701351634 0.03523366427751468965556825 0.5775657803119523814316949
0.869399666942255677781759 0.01989228506043221739174598 0.5669541884139650544938149
0.8620193047239920192126306 0.03523366427751468965556825 0.5608991136452856629546204
0.8691121451949570531070322 -0.01666666666666665602702935 0.5653413792170823848337591
0.861236359215538094247222 -0.02976766372633635193700741 0.5576706896085410480878863
0.861236359215538094247222 0.00356566960699697616324344 0.5576706896085410480878863
0.5398539897593558345434417 -0.002198628455720763857222932 0.6420526182150766425493771
0.5318480675570624871539849 0.01523994130776620131717536 0.6341052364301534849388986
0.5398539897593558345434417 0.03267851107125317039470147 0.6420526182150767535716795
0.5384101442966549022628442 -0.03445823557839970685545694 0.6233962042697558381121326
0.5313435860546786848601641 -0.01856347200855334306224265 0.6321154891514991769341236
0.5395260078310950557778369 -0.03410523643015363204344936 0.6410112736073656503066331
0.5313435860546787958824666 0.01856347200855333612334874 0.6321154891514991769341236
0.5395260078310950557778369 0.03410523643015363898234327 0.6410112736073656503066331
0.5384101442966549022628442 0.03445823557839969991656304 0.6233962042697558381121326
0.5377987622645985510416722 -0.004430355524601210098767368 0.607770882210800111877802
0.5305557044484994211330786 0.01336121338713181991297851 0.6155417644216002459600645
0.5377987622645985510416722 0.03115278229886486727195916 0.607770882210800111877802
0.5234891462065232037303986 0.0007719030968202918001341839 0.6242610493033435847820556
0.5236656457806462272586145 -0.001124902245066380273089135 0.6252094519742869005440866
0.877522188639368927454143 0.001199182979754669130592615 0.6236769943403853710961471
0.8771604815545002153953646 -0.001922597149491867734097394 0.6252378844050086037498204
0.8690876780188619976641462 -0.01422300992178493830864205 0.6345325163130879353445835
0.8613765815680922699471012 -0.03208885956820628493346703 0.6422662581565439232633707
0.8613765815680922699471012 0.003642839724636419158204648 0.6422662581565439232633707
0.8694844247353383792642489 -0.01978844679591321153999672 0.6175618275858467676187047
0.8625620575517565224998862 -0.0352559304828251943164652 0.60862890276263614808272
0.861411621199700050510728 -0.03453251631308802693798299 0.6268564594939260992134678
0.8614116211997001615330305 0.03453251631308801306019518 0.6268564594939258771688628
0.8702381143709185806756068 0.01978844679591319419276196 0.6163049595817979842138357
0.8622003504668880324857128 0.03453251631308801306019518 0.6101897928272592697140908
0.8705998214557869596674777 -0.01666666666666667684371106 0.6147440695171747515601623
0.8633157471873366128889415 -0.02738962090458414017080102 0.6073720347585873646778509
0.8633157471873366128889415 0.005943712428749199638833289 0.6073720347585873646778509
0.542661614689253224419474 -0.01159965515445253447790463 0.6598718910668536219432667
0.5463308073446265789030463 0.01439529286813401309785831 0.6587362041675871582313562
0.5463308073446264678807438 -0.03759460317703926246490909 0.6587362041675872692536586
0.5456174446651762544036046 -0.0426616146892532036027923 0.6562026984114803784819969
0.5456174446651763654259071 0.04266161468925340483071551 0.656202698411480156437392
0.5419482520098030109423348 -0.01666666666666647214634089 0.6573383853107466201493025
0.5449040819857261519487679 0.007901555997019608576503735 0.6536691926553732656657303
0.5449040819857261519487679 0.04123488933035294318196762 0.6536691926553732656657303
0.5811520108547983953783955 -0.01277828083382692020419924 0.6939302916886251892947257
0.5746805678944612028047345 0.008415635876756873134940662 0.6878605833772504229983724
0.5811520108547982843560931 0.02960955258734068729076228 0.6939302916886251892947257
0.5686108595830865475306837 -0.03786058337725048406063877 0.6797971307780654726116154
0.5686108595830865475306837 0.03786058337725046324395706 0.6797971307780652505670105
0.5560697083113745886606694 0.00959426155613106804165291 0.6656639698675057559285051
0.5621394166227494659793251 -0.01159965515445274437944523 0.6737274224666907063152621
0.5560697083113745886606694 -0.03279357186503653598386165 0.6656639698675058669508076
0.844855514370898341702798 0.01847211471577846556013647 0.6736166003448801342656793
0.8397110287417964835654516 -0.01666666666666670806873363 0.6790915717287872022112083
0.844855514370898341702798 -0.01486121861755486731060394 0.6736166003448801342656793
0.8293964962837965249065064 -0.003962398249333099961577709 0.6897110287417962393163862
0.8242264494548986464295126 -0.02700676032446285360077987 0.6948555143708979864314301
0.8242264494548986464295126 0.01908196382579669878043482 0.6948555143708979864314301
0.8345692215555257087444829 -0.03971102874179646691210621 0.673949764542516760457147
0.8242546890975257500855378 -0.03971102874179646691210621 0.6845692215555254644954175
0.8242546890975257500855378 0.03971102874179642527874279 0.684569221555525353473115
0.8345692215555253756775755 0.03971102874179641833984888 0.6739497645425164273902396
0.8762562214503264446108233 0.0004288355860892808634615703 0.6741726141357624602079568
0.8759497374147301451685621 -0.00104180365728200703331896 0.6749079337574481751715894
0.8727263250582775189201357 -0.005405021055623089772101952 0.6781313461139008014200158
0.8698093967374213031362729 0.0004288355860892286591269651 0.6806194388486677127048097
0.8679083578034498813735809 -0.01813730591003793329862859 0.6668665541461679113766081
0.8605824350495128172156001 -0.03437513699061535421552804 0.6583188030197898443773852
0.8641785739318996739655176 -0.02250052330837901473636897 0.6756308046411805268149919
0.8590541226414756259543992 -0.0337621689194225679808703 0.6651013322951332407129144
0.8646849454469972551251544 0.02250052330837901126692202 0.6700899665026203155804296
0.8561371943206195211928389 0.03873835438895641136713976 0.6675894250299001519977082
0.8686238146607930810105813 0.01813730591003797840143896 0.6663601826310702191946689
0.8602759510139164067510364 0.03376216891942260267533982 0.6590541226414755593410177
0.8689302986963893804528425 -0.01666666666666664214924154 0.6656248630093846152533388
0.8612978919068560168526005 -0.02984787293116954523530815 0.6578124315046922632177484
0.8612978919068560168526005 0.003485460402163791104879209 0.6578124315046922632177484
0.8556308228055217179885972 0.0174994403629384620568743 0.6731302631684601411876656
0.8612616456110435692039573 -0.004572247359351319304088257 0.6781188973759474380997858
0.8556308228055217179885972 -0.02664393508164106250113434 0.6731302631684601411876656
0.593119900804904176538912 0.0118534920971452191473805 0.7187335912922410141590035
0.586239801609808264259982 -0.01666666666666662480200678 0.7240466468534766386611068
0.593119900804904176538912 -0.02147984123618811719280686 0.718733591292240903136701
0.5777106915720069402198078 -0.0003915534089360897399348382 0.7281022449809430030498447
0.5760616807293014174362611 0.002906468276475003206793524 0.7268447875471736319141769
0.579334131563858267810474 -0.02222697596865725461201535 0.7167929802921462201226177
0.5889943854099493059095494 -0.03623980160980828230110617 0.7142600793819056104183574
0.5749305369210115923550575 -0.005951862710926719875204061 0.7253220903299475441627919
0.5749305369210115923550575 0.00595186271092677625371703 0.7253220903299475441627919
0.5793341315638580457658691 0.02222697596865730318427268 0.7167929802921462201226177
0.5889943854099493059095494 0.0362398016098083308733635 0.7142600793819058324629623
0.5820887153639990874154364 -0.01090487181542541469947416 0.7070064128205754139244732
0.5765539769128628089234212 0.008415635876756893951622374 0.7140128256411509832801698
0.5820887153639989763931339 0.02773614356893920607216586 0.7070064128205754139244732
0.5721503822700162444903071 0.0003915534089361469315994368 0.7225419356789523073203441
0.5732815260783060695715108 -0.002653841025515626603215047 0.7240646328961781730271241
0.6310256967707125186350936 -0.01310225138191802030096511 0.7441279481526305028538104
0.6243209261564103274011472 0.008486978256676491749743718 0.7382558963052612277522258
0.6310256967707124076127911 0.03007620789527096216708912 0.7441279481526305028538104
0.6184488743090410522995626 -0.03825589630526114032216256 0.7319347933962988550504747
0.6184488743090409412772601 0.03825589630526118195552598 0.7319347933962989660727771
0.6058720518473694749417291 0.01386958679259807369898994 0.7197416386399675403140463
0.6117441036947388610656162 -0.00771964284599640105516416 0.72606274154892957994889
0.6058720518473694749417291 -0.02930887248459091223851125 0.719741638639967207247139
0.7945964569498111806922225 0.01752627315108951089328571 0.7229298162012784967345169
0.7891929138996222059532215 -0.01666666666666662480200678 0.7283595935253558417699082
0.7945964569498111806922225 -0.0158070601822438289163486 0.7229298162012784967345169
0.7780903682107480623386664 -0.005538424711081471607521109 0.7391929138996220505219981
0.7723913655720627824408098 -0.02806467194403695214477423 0.744596456949811025260999
0.7723913655720631155077172 0.01698782252187397076581554 0.744596456949811025260999
0.7837912346945701269618212 -0.03919291389962210880870686 0.7229579143203037627785079
0.7726886890056960943695685 -0.03919291389962210880870686 0.7337912346945701935752027
0.772688689005696205391871 0.03919291389962215044207028 0.7337912346945701935752027
0.7837912346945703490064261 0.03919291389962215044207028 0.7229579143203039848231128
0.831606643821510171932232 0.0006778986291784231408077965 0.719071254807668092112749
0.828811745882638839511003 -0.006267694506920968612606604 0.7225440513757177551923405
0.8228019200615561690170807 -0.00575195713524454411286202 0.7285538771968005367085652
0.819586992179344719922085 0.000677898629178520610583103 0.7310909064498336551451985
0.82083150626989731524219 -0.02361225980276611749464344 0.7145638117629762309235275
0.8185113578306416615149033 -0.03960102784025430061598527 0.7058915291150535953335066
0.8141296374136337554716647 -0.02309652243108969299489885 0.7257149408412784108435289
0.8093643256831036802978474 -0.03401123196251182312366268 0.7151976719755037681380827
0.8148216804488146447482677 0.02309652243108972768936837 0.7205736375840592344843571
0.8061493978008922312028517 0.03908529046857792121905106 0.7177347012285368865747159
0.8264915974433831857837163 0.02361225980276605157515135 0.7138717687277953416469245
0.8157164598917705511382792 0.03401123196251182312366268 0.7093643256831035914800054
0.8292864953822545182049453 -0.01666666666666672541596839 0.7103989721597454565227281
0.8241714490041275320564296 -0.01436137040907881946838476 0.7051994860798727060569036
0.8241714490041275320564296 0.01897196292425451860652608 0.705199486079872817079206
0.8054573547657112309039462 0.01741864972004527473137259 0.7228760044857562849784927
0.8109147095314220843320641 -0.004999974081865933214774422 0.7282519700943114182578597
0.8054573547657112309039462 -0.0274185978837771793248379 0.7228760044857562849784927
0.6419308083889824212420194 0.003841734967680187576993811 0.7619109265786977447376671
0.6338616167779648202795784 -0.01666666666666665602702935 0.7688516758728225486407837
0.641930808388982310219717 -0.02949159836565315440104484 0.7619109265786977447376671
0.6254530970765928010735024 -0.0001503727360772482964188651 0.7756034698126701432130403
0.62511376898623849385217 0.0005282834446315439825073157 0.7754145144583930449044828
0.6287746311069313254193958 -0.01866094959874341902006378 0.7661978086452597702660228
0.6378409641839872801227784 -0.03386161677796485636182666 0.7602542008171734311261503
0.6244559556105544473325608 -0.002144655668154010069725857 0.7746063283466317894720987
0.6244559556105544473325608 0.002144655668154062545111005 0.7746063283466316784497963
0.6287746311069312143970933 0.01866094959874346065342721 0.7661978086452597702660228
0.637840964183987169100476 0.03386161677796487023961447 0.7602542008171734311261503
0.6327539785129536742402934 -0.009645687897435447147320708 0.7576003335896107637736918
0.6277774896408928606561517 0.008486978256676481341402862 0.7652006671792214165250812
0.6327539785129536742402934 0.02661964441078838033982734 0.7576003335896107637736918
0.6234588141445160935916192 0.000150372736077300907329285 0.7736091868805934357311571
0.6241166275202001401112284 -0.00146599948744521781790473 0.7744173729923545801412388
0.6930262147707965114662443 0.008533579486931758273371429 0.7655073647161351191314793
0.6860524295415930673414096 -0.01666666666666664214924154 0.7722930045142624155829481
0.6930262147707965114662443 -0.02479975384640157459736898 0.7655073647161351191314793
0.6768019403612638429379444 -0.001834311693991827040689513 0.7786362520552556620856421
0.6745252364101379516370116 0.00271909620825983369685197 0.77819385979812172315917
0.6788296646713313231558118 -0.03605242954159312840367591 0.7650702396440007824196528
0.6671090589238005685857047 -0.02122007456891831372880475 0.7706000963793169233895242
0.6621629980046646046787373 -0.03605242954159313534256981 0.7638197237661890071080961
0.6695791754910019877300442 0.02122007456891835189272122 0.7714134871849940289223468
0.6598862940535388244001069 0.03516764502732520197847421 0.7633773315090550681816239
0.6788296646713313231558118 0.03605242954159315615925152 0.7650702396440007824196528
0.6574161774863374052557674 0.005147763217040518882172684 0.7625639407033779626488013
0.6648323549726746772847719 -0.01335321514361799757897309 0.770157704122182984463052
0.6574161774863372942334649 -0.03185419350427652618318319 0.7625639407033779626488013
0.7422637668512963582401198 0.003674233387115442839299106 0.7614104665358190082713463
0.7345275337025928275025421 -0.01666666666666663867979459 0.7691008835448540637003134
0.7422637668512963582401198 -0.02965909994621789350088825 0.7614104665358190082713463
0.7248061760947824838652309 -0.002776048548954059003168737 0.7775822246437364970716999
0.7228210516356755599431949 0.001194200369259550966946626 0.7783731487335838750141193
0.7268545042790541810262539 -0.03452753370259283027809971 0.7614278541213154172240252
0.7158757425768192961257341 -0.02063691558488025407092081 0.7715590327651093982552766
0.7101878376123874625491794 -0.03452753370259283027809971 0.763095079251723373836569
0.7171331466712438373889427 0.02063691558488030611262509 0.7699091952201977395731092
0.7082027131532806496494459 0.03610938188228744738506037 0.7638860033415708628012908