# geometry NO_DATA 436
#  x  y  z
0.6978642462072983665422043 0.03979953605530511806520622 0.3419352898480068070341531
0.6957284924145966664710272 -0.01666666666666665602702935 0.3427640142349508423080806
0.6978642462072983665422043 0.006466202721971785194465809 0.3419352898480068070341531
0.6816777091603942739794775 -0.01143489984173782711418532 0.3457284924145964666308828
0.6697626796988936925814073 -0.04049672558966767310639767 0.3478642462072981667020599
0.6697626796988936925814073 0.01762692590619202581692093 0.3478642462072982777243624
0.6952413326738808851956719 -0.04572849241459650548868865 0.3422768544942350610327253
0.6811905494196786037264246 -0.04572849241459650548868865 0.3452413326738806853555275
0.6811905494196786037264246 0.04572849241459653324426426 0.3452413326738806853555275
0.6952413326738808851956719 0.04572849241459653324426426 0.3422768544942349500104228
0.7497540684681253120302813 0.04894327856677947730101863 0.3491892100986540570239924
0.7495081369362506240605626 -0.01666666666666667337426411 0.349225707751515124233066
0.7497540684681253120302813 0.01560994523344614789972518 0.3491892100986541125351437
0.7349882880390544714899193 -0.01237303112772609320346717 0.3473613191667804800388808
0.7207143706737326738220872 0.01617480360291748825440905 0.3454604329291848241467733
0.7494439650866211444224518 -0.04950813693625081418625555 0.349161535901885589083804
0.718567552904262329960261 -0.04521450139731023748490557 0.3446427725190093771523436
0.7327772984199545369676798 -0.04950813693625081418625555 0.3464794869069756089174916
0.7349241161894247698072036 0.04521450139731023748490557 0.3472971473171509448896188
0.7185033810546328503221503 0.04570636446105942607420758 0.3445786006693797309807792
0.7494439650866211444224518 0.04950813693625082112514946 0.3491615359018854780615015
0.7021468177694704104752077 0.03977740810176801783404343 0.341924225871238163243504
0.7042936355389406433147315 0.01073771030737526513409996 0.3427418862814136102379337
0.7021468177694704104752077 -0.01830198748701748756584351 0.3419242258712382742658065
0.7512414883505688090181707 -0.04860819096764624341888705 0.3498496793182150899070848
0.7508462251979618473640699 -0.01557549899788281816404023 0.3496993586364300909963276
0.7512414883505688090181707 0.0174571929718806209685944 0.3498496793182150899070848
0.7506959045161767374310102 -0.04969935863643008822077007 0.3495672501334793347282925
0.7506959045161769594756151 0.04969935863643010209855788 0.349567250133479445750595
0.7501503206817848878884547 0.04913450026695876521332096 0.3492848209487436905718027
0.7503006413635697757769094 0.01610180829719532608068633 0.3494169294516944468398378
0.7501503206817848878884547 -0.01693088367256810264360745 0.3492848209487436905718027
0.5967746543481264875907755 0.02912737442824762240656256 0.382352720080121166734699
0.5935493086962529973860114 -0.0166666666666666594964763 0.3863383415622503314068581
0.5967746543481264875907755 -0.004205958905085712198901327 0.382352720080121166734699
0.5843329883952692593851452 -0.001765973935300856837576911 0.3935493086962529862837812
0.5783420137461590115890431 -0.02864861596488720366093794 0.3967746543481265319996965
0.5783420137461590115890431 0.02511666809428548391425196 0.3967746543481265319996965
0.5917227733237395703724815 -0.04354930869625300848824168 0.3845118061897370154156306
0.5825064530227558323716153 -0.04354930869625299461045387 0.3917227733237396702925537
0.5825064530227558323716153 0.04354930869625301542713558 0.3917227733237396702925537
0.5917227733237395703724815 0.04354930869625300848824168 0.3845118061897370154156306
0.6490085140996220136599959 -0.01550294116321774759437169 0.3515733486521022688187088
0.649504257049810962421077 0.01683890626973771204033525 0.3516594684536378245809374
0.649504257049810962421077 -0.04784478859617322804576034 0.3516594684536377135586349
0.6270760630003699986900756 -0.04020678865401428048187427 0.3614008822340812887574657
0.6393418669442327839647078 -0.04900851409962212607007714 0.3575818822630017490560306
0.6109051392838924510186871 -0.04119827455439215718735468 0.3703608388165563480853848
0.6109051392838924510186871 0.04119827455439215718735468 0.3703608388165563480853848
0.6270760630003701097123781 0.04020678865401430129855598 0.3614008822340812887574657
0.6393418669442327839647078 0.04900851409962214688675886 0.3575818822630018045671818
0.6367427101557593394076662 -0.007864941221058805234656042 0.3553923486231818085201439
0.6249726491620855028941151 0.01567518076628881401601845 0.3592974683957967929615052
0.6088017254456078442004241 0.002244732398661275583201524 0.3682574249782718522894243
0.6044008627228039109979818 0.02677634028638677110567556 0.3733122617881319271759821
0.6044008627228039109979818 -0.0222868754890642173371873 0.3733122617881319271759821
0.6534508425258378494504541 -0.04939907524049821918588066 0.3508349591133735345671596
0.6508349591133734124426269 -0.04939907524049821918588066 0.351416821865097983579318
0.6508349591133735234649293 0.04939907524049824694145627 0.3514168218650981501127717
0.6534508425258378494504541 0.04939907524049824694145627 0.3508349591133737011006133
0.6555322292046794618869399 -0.04416730841556938680358968 0.3503004623797507655069694
0.6532168081719660346351475 -0.01143489984173782364473837 0.350600924759501719751853
0.6555322292046795729092423 0.02129750873209373951411294 0.3503004623797508765292719
0.6506009247595017086496227 -0.01550294116321775279854212 0.3511827875112261687640114
0.6503004623797508099158904 0.01722946741061380515613877 0.3514641878831997190424374
0.6503004623797506988935879 -0.04823534973704932116156385 0.3514641878831996635312862
0.7925410412929352332866983 -0.0009605502085900570214543892 0.36531201693610332315032
0.7962705206464676388478097 0.02491382441767835131951614 0.3694355958116091187548591
0.7962705206464676388478097 -0.02683492483485847013291448 0.3694355958116091187548591
0.7801494378141928809355932 -0.04254104129293506675324466 0.3615825375825708065669062
0.7801494378141928809355932 0.04254104129293508063103246 0.3615825375825708065669062
0.7764199584606604753744818 -0.01666666666666665602702935 0.3574589587070649554512158
0.7640283549819182340456791 -0.02303445770494772643077752 0.3537294793535324943789533
0.7640283549819182340456791 0.01029887562838560297051593 0.3537294793535324943789533
0.827295702265061549951497 -0.01836771686822196575361588 0.3956634191332833450083228
0.8201527224326059517522935 0.006292454731677885222673741 0.3913268382665665567898827
0.827295702265061549951497 0.03095262633157773793368683 0.3956634191332833450083228
0.8158161415658891080227022 -0.04132683826656650960540418 0.3868498106956549387192013
0.8158161415658892190450047 0.04132683826656652348319199 0.3868498106956549387192013
0.8043365808667168881385123 0.02369962139130979417167566 0.3780362022580265879412309
0.8086731617334336208458012 -0.0009605502085900570214543892 0.3825132298289382060119124
0.8043365808667168881385123 -0.0256207218084899060461801 0.3780362022580265879412309
0.5452937556457417844768543 0.01989320624843369383905056 0.4245994506026917747476546
0.5405875112914837465893925 -0.01666666666666666990481716 0.4302403587699586973158716
0.5452937556457417844768543 -0.01344012708489963903168984 0.4245994506026917747476546
0.5300457777427944883186228 -0.004416800430711614183776348 0.4405875112914837132827017
0.5242102885483634899799199 -0.02833764505552870821558642 0.4452937556457418066813148
0.5242102885483634899799199 0.01950404419410548678692763 0.4452937556457418066813148
0.538950848723402042850239 -0.04058751129148376046718028 0.4286036962018769935767182
0.5284091151747128956017718 -0.04058751129148376046718028 0.4389508487234020650546995
0.5284091151747128956017718 0.04058751129148376046718028 0.4389508487234020650546995
0.538950848723402042850239 0.04058751129148376046718028 0.4286036962018771045990206
0.5641728914644171810621742 -0.04502416315090799342479855 0.4067225450987342338926567
0.5567225450987343116082684 -0.04502416315090799342479855 0.4130420592438758253805986
0.5567225450987343116082684 0.04502416315090799342479855 0.4130420592438759364029011
0.5641728914644171810621742 0.04502416315090799342479855 0.4067225450987342894038079
0.5673886111559118816671798 -0.03012347041954219206694177 0.4024879184245460095326052
0.5624261832147748885191163 -0.00176597393530085922282169 0.40497583684909199686075
0.5673886111559118816671798 0.02659152254894046885080883 0.4024879184245460095326052
0.5549758368490920190652105 -0.004027638376383396723312558 0.4112953509942336438598431
0.5524879184245459207147633 0.02432985810785793026611579 0.4151269467148291925084891
0.5524879184245459207147633 -0.03238513486062472718218785 0.4151269467148291925084891
0.8464896263079748628399557 -0.007858447672613663725904587 0.4079144831890517686190378
0.8482448131539874758288988 0.02196451196869441194192696 0.4105634058400656205556345
0.8482448131539874758288988 -0.03768140731392173592428918 0.4105634058400656205556345
0.8430577071864929772360142 -0.04648962630797474210320175 0.4061592963430391556300947
0.8430577071864929772360142 0.04648962630797474904209565 0.4061592963430392111412459
0.8413025203404803642470711 -0.01666666666666666296592325 0.4035103736920252481823468
0.8378706012189987006877345 0.002782081039652627152403142 0.4017551868460126351934036
0.8378706012189987006877345 0.03611541437298596002314355 0.4017551868460127462157061
0.8805397843070498220541253 -0.01362362350975841393529997 0.4441634078168082422344298
0.8740247804283125532265331 0.008036525457191400281797833 0.4383268156336164178554782
0.8805397843070498220541253 0.02969667442414122837668344 0.4441634078168081867232786
0.8681881882451207843587326 -0.03832681563361649279553234 0.4319008506471680441940464
0.8681881882451207843587326 0.03832681563361648585663843 0.4319008506471680441940464
0.8558365921831918576856424 0.01380170129433614702174626 0.4196382934775278461536629
0.8616731843663836265534428 -0.007858447672613677603692395 0.4260642584639762198150947
0.8558365921831918576856424 -0.02951859663956348661661977 0.4196382934775278461536629
0.4965306348476066777841709 0.02416083175875868155335624 0.4776301969111518275212802
0.4930612696952135221017954 -0.01666666666666667337426411 0.4836110507269860137036233
0.4965306348476066777841709 -0.009172501574574654786831118 0.4776301969111518275212802
0.4857521860956903747563729 0.002048499467620432893527616 0.4930612696952134665906442
0.4819124676485604941156282 -0.02434610356092643118630647 0.4965306348476066777841709
0.4819124676485604941156282 0.02844310249616730651434082 0.4965306348476066777841709
0.4913842092591097499010289 -0.0430612696952135387551408 0.4819339902908823525251591
0.4840751256595866580667575 -0.04306126969521354569403471 0.4913842092591096388787264
0.4840751256595866025556063 0.0430612696952135387551408 0.4913842092591097499010289
0.4913842092591097499010289 0.0430612696952135387551408 0.4819339902908823525251591
0.5126363785820696739037317 -0.0451598865875358357335756 0.4565114454640921692885058
0.5065114454640922136974268 -0.0451598865875358357335756 0.4637278931625313238562569
0.5065114454640922136974268 0.0451598865875358357335756 0.4637278931625313238562569
0.5126363785820696739037317 0.0451598865875358357335756 0.4565114454640921692885058
0.514669922942187052505858 -0.03291002035158077654308784 0.4524200567062320321731761
0.510965046530441613370499 -0.004416800430711608112244182 0.4548401134124641087552732
0.514669922942187052505858 0.02407641949015756205332295 0.4524200567062320321731761
0.5048401134124641531641942 -0.002233771269788187296967408 0.4620565611109033743453267
0.5024200567062320210709458 0.02625944865108098547068494 0.4668529521031105078421319
0.5024200567062320210709458 -0.03072699119065736006461975 0.4668529521031105078421319
0.8965780571985670910351018 -0.006240487399365538326301284 0.4586350324350834672948451
0.8982890285992835011086299 0.02367090313253497613210641 0.4621371506680175267334221
0.8982890285992835011086299 -0.03615187793126604931526202 0.4621371506680176377557245
0.8939739579945459313492506 -0.04657805719856718262850137 0.4569240610343670572213171
0.8939739579945458203269482 0.04657805719856718262850137 0.4569240610343670017101658
0.8922629865938294102534201 -0.01666666666666666990481716 0.4534219428014328312492864
0.8896588873898082505675688 0.004614582655758583604188594 0.4517109714007164211757583
0.8896588873898082505675688 0.03794791598909192514854638 0.4517109714007163656646071
0.9212172433247913794218675 -0.02448838920334486801699825 0.4957056325281363751145136
0.9170501728701911936525448 0.0002562091862611803882998629 0.4914112650562727502290272
0.9212172433247913794218675 0.02500080757586722879359797 0.4957056325281363751145136
0.9127558053983275687670584 -0.04141126505627271137122136 0.4842520554951202926829978
0.912755805398327457744756 0.04141126505627271831011527 0.4842520554951202371718466
0.9042943674718635360676444 0.0185041109902405118137203 0.4727984784621042102514821
0.9085887349437272719754333 -0.006240487399365536591577808 0.4799576880232566677975115
0.9042943674718635360676444 -0.03098508578897158499687592 0.4727984784621042102514821
0.4550865710106415384927914 -0.04340312948824041200390766 0.5484897004988817936776968
0.4548087347569977900718641 -0.01309039515714313650640577 0.5469794009977637649910776
0.4550865710106415384927914 0.01722233917395413205220223 0.5484897004988817936776968
0.470523072118104290773033 -0.04087836112662750209789664 0.5111654890509607085391508
0.4626757885520788038391515 -0.03785776212439143778576423 0.5263218562165092873073036
0.4599031048701543444856554 -0.04697940099776393152453124 0.5384277034464897138121842
0.4626757885520788038391515 0.03785776212439145166355203 0.5263218562165092873073036
0.4599031048701543444856554 0.04697940099776394540231905 0.5384277034464897138121842
0.470523072118104290773033 0.04087836112662751597568445 0.5111654890509607085391508
0.4732759855709732788042743 -0.02216319499234040146795621 0.5045608194366861809498914
0.4684792219405160551559675 0.002048499467620439832421519 0.5091216388733723618997828
0.4732759855709732788042743 0.02626019392758128026543751 0.5045608194366861809498914
0.4606319383744904571997836 0.01364606766443061253157865 0.5242780060389209406679356
0.4575814184389222494253602 -0.007545027793294167492432756 0.534873553767783338486197
0.9404821133348104655880206 0.01453754780631033756421733 0.5240554344714994927656448
0.9436442175221380068705912 -0.00821333943165558633126011 0.5354308780904823983348706
0.9466620484492118681174588 0.01424900128580320474158682 0.5478708811396435507390379
0.9465177751889584101263608 -0.01695521318717380099272418 0.548935440569821686551677
0.9465177751889584101263608 0.04545321575878019659811002 0.548935440569821686551677
0.9426878170555748059911139 -0.03941755390463258512667721 0.5344744776239193084776957
0.9355471477455502560260925 -0.04154667276498892614089442 0.5188723703874308368355628
0.945705647982648778260284 -0.04787088113964366176134035 0.5469144806730803498595606
0.945705647982648778260284 0.04787088113964367563912816 0.5469144806730803498595606
0.9365035482121133458832674 0.03941755390463259900446502 0.5198287708539939266927377
0.9387092519328776862863606 0.04787088113964367563912816 0.5302478140064137424047885
0.9333414440247859156229993 -0.01666666666666666296592325 0.5084533272350110211235119
0.929362878902088795918246 -0.00819711804874989104219285 0.5042266636175054550506047
0.929362878902088795918246 0.02513621528458344703271798 0.5042266636175054550506047
0.4494309771622616578312659 0.03824106287081975585895322 0.5888100857085580841498995
0.448861954324523415582604 -0.01666666666666665602702935 0.5935515085976716953553023
0.4494309771622616578312659 0.004907729537486424722936285 0.5888100857085580841498995
0.4480018983735454818351229 0.014946554764710838839048 0.5988619543245234932982157
0.4477108652603057903363037 -0.01724873289314593494125916 0.5994309771622617910580288
0.4477108652603057903363037 0.04714184242256761608880211 0.5994309771622617910580288
0.4486401764089429367032835 -0.04886195432452342807261303 0.5933297306820911609648306
0.4477801204579650029558024 -0.04886195432452342807261303 0.5986401764089430699300465
0.4477801204579650584669537 0.04886195432452344888929474 0.5986401764089430699300465
0.4486401764089429367032835 0.04886195432452344888929474 0.5933297306820911609648306
0.4544304556731644795242175 -0.04803878488279697545060287 0.5526423199184026247010593
0.452642319918402702416671 -0.04803878488279697545060287 0.5639985408582175452352203
0.452642319918402702416671 0.04803878488279697545060287 0.5639985408582174342129179
0.4544304556731644795242175 0.04803878488279697545060287 0.5526423199184025136787568
0.4545568790681249748963921 -0.04446251337327344899108539 0.5509806075586013429656873
0.4537493508719646628790656 -0.01309039515714313997585272 0.5519612151172027525447561
0.4545568790681249748963921 0.01828172305898716903937995 0.5509806075586012319433848
0.4519612151172029967938215 0.006045775212962977741837367 0.5633174360570176730789171
0.450980607558601420681299 0.03741789342909328935915525 0.5736930494382310730117069
0.450980607558601420681299 -0.02532634300316732867131009 0.5736930494382310730117069
0.9486815005201251205235735 0.006252515887132457927943818 0.5627780907567742074704142
0.9493407502600625935684775 0.03826734974059099736454215 0.5735784322937363954864054
0.9493407502600625935684775 -0.02576231796632609885588927 0.5735784322937365065087079
0.9481319175696309997647404 -0.04868150052012521628030939 0.5621188410168369564701152
0.9481319175696309997647404 0.04868150052012522321920329 0.5621188410168368454478127
0.947472667829693415697534 -0.0166666666666666594964763 0.5513184994798746574318216
0.9469230848791991839163984 0.01293050180592841304216822 0.55065924973993729540922
0.9469230848791991839163984 0.04626383513926174417818515 0.55065924973993729540922
0.9514584030007373627313427 -0.04818363626130439669736916 0.5996420392620416262019489
0.9512661426073061310404455 -0.01556622440388774619712819 0.5992840785240832746083584
0.9514584030007373627313427 0.01705118745352890777255972 0.5996420392620416262019489
0.9509081818693477794468549 -0.04928407852408332040505812 0.5944349638722745687857696
0.9509081818693477794468549 0.04928407852408332734395202 0.5944349638722745687857696
0.9503579607379581961623671 0.03886992774454910148929088 0.5892278884825074003472878
0.9507159214759166587782602 0.006252515887132450989049914 0.5940770031343161061698765
0.9503579607379581961623671 -0.026364895970284202980638 0.5892278884825074003472878
0.4488801507118721501043979 -0.004524968474164005674542643 0.6071906983843790017729702
0.4494400753559360528477384 0.02768851557104162752764864 0.6127016228365664840538329
0.4494400753559360528477384 -0.03673845251936963540728698 0.6127016228365664840538329
0.4485800194049581191002574 -0.04888015071187229443339106 0.6066307737403151545407809
0.4485800194049581191002574 0.04888015071187230137228497 0.6066307737403151545407809
0.4480200947608943273792192 -0.0166666666666666594964763 0.6011198492881276722599182
0.4477199634539802408639275 0.01382670547658313917049888 0.6005599246440638250277289
0.4477199634539802408639275 0.04716003880991646857179234 0.6005599246440638250277289
0.453835686634712742737463 -0.04532059563402325574887897 0.6491562822687360068130147
0.453183419914252205717986 -0.01367469776321763620663408 0.6483125645374722134661738
0.4538356866347128537597655 0.01797120010758799027450472 0.6491562822687361178353171
0.4523397021829883013488427 -0.04831256453747229118178552 0.6385604646983207288712947
0.4523397021829883013488427 0.04831256453747229118178552 0.6385604646983208398935972
0.4508437177312637489379199 0.0271209293966416173371492 0.6279646471279055619518772
0.4516874354625276533070632 -0.004524968474164008276627857 0.6377167469670569355244538
0.4508437177312637489379199 -0.03617086634496963215568144 0.6279646471279054509295747
0.9487209677972822108316109 0.02028414611170444720178452 0.6215631783144223154735641
0.9474419355945642440275378 -0.01666666666666665602702935 0.6338630408531344961886589
0.9487209677972822108316109 -0.01304918722162888219950894 0.6215631783144223154735641
0.9451208111035264147758994 0.01202441768459085527642749 0.6474419355945644216632218
0.9440787188152063302837291 -0.0187508512433069048086498 0.6487209677972822774449924
0.9440787188152063302837291 0.04279968661248861883095174 0.6487209677972822774449924
0.9466264768741196045098718 -0.04744193559456442305100055 0.6330475821326896346263879
0.9443053523830817752582334 -0.04744193559456442305100055 0.6466264768741196711232533
0.9443053523830815532136285 0.04744193559456442998989445 0.6466264768741196711232533
0.9466264768741196045098718 0.04744193559456442998989445 0.6330475821326896346263879
0.9514027058276500747879822 -0.04932229583930539118519221 0.6008524846962607357525599
0.9508524846962607135480994 -0.0493222958393053773074044 0.6039402566214973067104665
0.9508524846962607135480994 0.04932229583930539812408611 0.603940256621497417732769
0.9514027058276501858102847 0.04932229583930539812408611 0.6008524846962607357525599
0.9514392943431262406051019 -0.04822185357652647441639715 0.6003388520803474293074942
0.9512279252920841088325687 -0.01556622440388774793185167 0.6006777041606947697971464
0.9514392943431262406051019 0.01708940476875097855269381 0.6003388520803474293074942
0.9506777041606945255480809 -0.01049112281619331461801625 0.603765476085931340755053
0.9503388520803472960807312 0.02216450635644540839708228 0.60651439593082068224561
0.9503388520803472960807312 -0.04314675198883203416366783 0.60651439593082068224561
0.4702196623899098093524174 -0.02569965266829941918924618 0.6959193150582092535216816
0.4662308586076409633314199 -0.0005276892185476072258745739 0.6918386301164184404299817
0.4702196623899097538412661 0.02464427423120421623004006 0.6959193150582092535216816
0.4551160246594337932535268 -0.04755619869658881532226147 0.6536200402077092519448343
0.4577007251495000539343039 -0.03939482881300730016116418 0.6662060219325851573302089
0.4645483132218540256452854 -0.04183863011641847373667247 0.6816507879475462994278701
0.4577007251495000539343039 0.03939482881300730016116418 0.6662060219325851573302089
0.4645483132218539701341342 0.04183863011641848067556637 0.6816507879475462994278701
0.4551160246594337932535268 0.04755619869658881532226147 0.6536200402077093629671367
0.4542138695551545257700354 -0.04456422979313978682824882 0.6512219006517054875615713
0.4539397857551356052496772 -0.01367469776321763794135755 0.6524438013034110639409846
0.4542138695551545257700354 0.01721483426670451094553371 0.6512219006517054875615713
0.4565244862452018659304542 0.008505296783085147804825965 0.6650297830282869693263592
0.4593832705352870471315896 -0.01422286536325548592096801 0.6763938641014572983323205
0.9404932228714437680849869 0.006574052803446525823638513 0.6660808299320026826251251
0.9376771510383067331773077 -0.0122061964697206017105291 0.6754709545685861904473768
0.9305211627841419863571559 -0.00210578003860905933058989 0.689907386136779710028577
0.9261812463631141634223809 -0.02534649950872224291598123 0.6949536930683897217875256
0.9261812463631141634223809 0.02113493943150410864229016 0.694953693068389832809828
0.9359788802168670374115322 -0.03544691593983378269383522 0.6737726837471462726369964
0.9387040626574392199188424 -0.04553952980305393805071645 0.6621523240120896769411729
0.928822891962702179569078 -0.03990738613677983354088852 0.6882091153153400142628016
0.928822891962702179569078 0.03990738613677985435757023 0.6882091153153400142628016
0.9404023334788789156846178 0.03544691593983381738830474 0.6638505948335295947515533
0.9358879908243020739888607 0.03990738613677985435757023 0.6715424486486731847634246
0.9432184053120160616145995 -0.0166666666666666525575824 0.6544604701969460869293016
0.9431275159194512092142304 0.007563947487644809633544618 0.6522302350984729990557298
0.9431275159194512092142304 0.04089728082097814076956155 0.6522302350984729990557298
0.4907057042163668336698379 0.006698764289044815273266309 0.7209770112614887205282344
0.4953528521081834168349189 0.03073780183874505467223059 0.7280125788475280135259027
0.4953528521081834168349189 -0.01734027326065543453403883 0.7280125788475280135259027
0.4867556741655763019593905 -0.04070570421636689195654668 0.716329863369672303896607
0.4867556741655763019593905 0.0407057042163669197121223 0.716329863369672303896607
0.4821085262737597187943095 -0.01666666666666664908813544 0.7092942957836330108989387
0.4781584962229691315727109 -0.009821985002180681073591373 0.7046471478918165942673113
0.4781584962229691315727109 0.02351134833115264832770208 0.7046471478918165942673113
0.5101790376562391760018045 -0.03812219725518784657625204 0.7483012349114270822525441
0.5076376664609788535997836 -0.008186394099000206953098413 0.7466024698228542755273907
0.5101790376562391760018045 0.02174940905718742573116131 0.7483012349114270822525441
0.5059389013724060468746302 -0.04660246982285429218073602 0.7433172837226162954493702
0.5059389013724060468746302 0.04660246982285430605852383 0.7433172837226162954493702
0.5016987650885728067251534 0.03663456744523244795752603 0.7383333325338052866015914
0.5033975301771456134503069 0.006698764289044811803819357 0.7416185186340433777019143
0.5016987650885728067251534 -0.02323703886714282434988732 0.7383333325338052866015914
0.8977015474376376369392005 0.03091397060916191777413253 0.7332124231715241302609343
0.8954030948752753626962431 -0.01666666666666666296592325 0.7381585327422186537660309
0.8977015474376376369392005 -0.002419362724171415096607873 0.7332124231715241302609343
0.8892780763710981251080057 0.004416629658312337843029116 0.745403094875275451514085
0.8854515104292831617627257 -0.02431979855029647863418063 0.7477015474376377257570425
0.8854515104292832727850282 0.03315305786692115952440929 0.7477015474376377257570425
0.8936614229319013169572372 -0.04540309487527548204521821 0.7364168607988444970047226
0.8875364044277241903913023 -0.04540309487527548204521821 0.7436614229319014057750792
0.8875364044277240793689998 0.04540309487527549592300602 0.7436614229319014057750792
0.8936614229319013169572372 0.04540309487527549592300602 0.7364168607988444970047226
0.9159457547896021623046181 -0.04300455064531905763347552 0.7086653114755732119078857
0.9086653114755733895435696 -0.04300455064531905763347552 0.7180874160091830216146036
0.9086653114755733895435696 0.04300455064531907845015724 0.7180874160091832436592085
0.9159457547896021623046181 0.04300455064531907845015724 0.7086653114755733229301882
0.9180586113053978980502734 -0.02844366401726146700856823 0.7034977246773401748924925
0.9142758926687096776575459 -0.002105780038609068871569008 0.7069954493546807272608135
0.9180586113053981200948783 0.02423210394004333273487717 0.7034977246773403969370975
0.9069954493546809048964974 0.002177542400553102164284525 0.7164175538882907590121363
0.9034977246773403525281765 0.02851542637920550030128375 0.7223419337445602383951382
0.9034977246773403525281765 -0.02416034157809929944216165 0.7223419337445601273728357
0.5383638445473606370939024 0.00792655232046387409061694 0.7739327649462045544126454
0.5441819222736803407514117 0.02962373020115791066864119 0.7804112967134502198973678
0.5441819222736803407514117 -0.01377062556023016248740731 0.7804112967134502198973678
0.5317553918908468624238139 -0.0383638445473606995439475 0.7681146872198848507551361
0.5317553918908468624238139 0.03836384454736070648284141 0.7681146872198848507551361
0.5259373141645272697886071 -0.01666666666666666296592325 0.7616361554526391852704137
0.5193288615080133840962162 -0.01982254955163951018470847 0.7558180777263194816129044
0.5193288615080133840962162 0.01351078378169382095130846 0.7558180777263194816129044
0.5615963691379977085205155 -0.0366585302980057953226023 0.7982548994360035843342871
0.5584158354149936220878203 -0.006815398092665424234493088 0.7965097988720069022150483
0.5615963691379977085205155 0.02302773411267495379251002 0.7982548994360035843342871
0.5566707348509971620131864 -0.04650979887200704793182027 0.7938848422629020129548394
0.5566707348509971620131864 0.04650979887200704793182027 0.7938848422629023460217468
0.5517451005639965044835549 0.03776968452580424517872615 0.7895147850898008856646015
0.5534902011279929645581888 0.007926552320463867151723036 0.792139741698905663902508
0.5517451005639965044835549 -0.02191657988487650393638617 0.7895147850898007746422991
0.8474881026864997668468504 0.03193884211008801710107718 0.7844507394235882280497663
0.8449762053729996669204638 -0.0166666666666666664353702 0.7884575237415438753174612
0.8474881026864997668468504 -0.001394491223245319239110174 0.7844507394235882280497663
0.8367447495967033077590713 0.0002037551140739145565279611 0.7949762053729997335338453
0.8310251911339072705686704 -0.02810578359225907041363257 0.7974881026864999444825344
0.8310251911339072705686704 0.02851329382040690418875784 0.7974881026864999444825344
0.8431171794038716527097677 -0.04497620537299965026711845 0.7865984977724158611067651
0.8348857236275751825260727 -0.04497620537299965720601236 0.7931171794038714972785442
0.8348857236275751825260727 0.04497620537299965720601236 0.7931171794038716083008467
0.8431171794038716527097677 0.04497620537299965720601236 0.7865984977724158611067651
0.8711471851957854894976663 -0.04136041533419132498750059 0.7606055370332958087686848
0.8606055370332958975865267 -0.04136041533419132498750059 0.7707535220685066690293752
0.8606055370332958975865267 0.04136041533419135274307621 0.7707535220685066690293752
0.8711471851957852674530614 0.04136041533419135274307621 0.7606055370332960308132897
0.8754030886578831882616214 -0.02027711900921232157646301 0.7543197923329041376661053
0.869181232828298178105797 0.004416629658312358659710828 0.7586395846658084973768155