# geometry NO_DATA 868
#  x  y  z
1.39813639202952821882775 0.03881835217716479713434552 0.8406819601476366310421895
1.396272784059056082384132 -0.01666666666666666990481716 0.8425455681181104328203446
1.39813639202952821882775 0.005485018843831464263605113 0.8406819601476366310421895
1.392545568118111365407685 0.009212234784777097174046645 0.8462727840590563710421179
1.390681960147638562830252 -0.02039388260761258730990875 0.8481363920295281744188287
1.390681960147638562830252 0.03881835217716678165800204 0.8481363920295281744188287
1.394409176088585056163538 -0.04627278405905635438877255 0.8406819601476389625105412
1.390681960147640339187092 -0.04627278405905635438877255 0.8444091760885849007323145
1.390681960147640339187092 0.04627278405905635438877255 0.8444091760885849007323145
1.394409176088585056163538 0.04627278405905635438877255 0.8406819601476391845551461
1.442623650589760497808811 0.005741903538553919800202507 0.8131182529487932519884907
1.435247301179521262071148 -0.01666666666666667684371106 0.820494602359037594752067
1.442623650589760497808811 -0.0275914297947794130705379 0.8131182529487930299438858
1.420444242483327457193809 -0.01293945072572076637751337 0.8333836932090485927204782
1.413017533197372888054133 0.001913967846188184551703415 0.8388964346488149148584057
1.427870951769282470422695 -0.03524730117952153130023163 0.8131182529487985810590089
1.411153925226900307521305 -0.03152008523857562083403394 0.8370328266783421122809727
1.411204285102615418878713 -0.03524730117952153130023163 0.8241437358283365544053822
1.413067893073088443500751 0.03152008523857561389514004 0.8260073437988095790274201
1.403777575816661071783642 0.04627278405905409230935987 0.8296564772681028765433098
1.427870951769282470422695 0.03524730117952151742244382 0.8131182529487986920813114
1.401863607970472935804196 0.03881835217716254199382675 0.8406819601476354097968624
1.403727215940945960426234 0.00921223478477511611983708 0.8425455681181084344189003
1.401863607970472935804196 -0.02039388260761230975415259 0.8406819601476354097968624
1.492115731846210380240336 0.002694391077247476617984034 0.8105786592310373350755981
1.484231463692420316391463 -0.01666666666666667684371106 0.8184629273848340602626195
1.492115731846210380240336 -0.03063894225608586319165028 0.8105786592310373350755981
1.474941146435995165120403 -0.001913967846183684028485428 0.8268551142821787269809874
1.473535097333359633609007 0.0008981303590869668890608879 0.8273630330257271126015439
1.476347195538630252542589 -0.03423146369242032610591409 0.8105786592310437743691409
1.466158747923118399469899 -0.01947876487193733047176281 0.8199866836154848792617145
1.459680528871963200998607 -0.03423146369242032610591409 0.8115944967181462077476795
1.467056878282204879226924 0.01947876487193730965508109 0.8189708461283885521098114
1.458274479769328113576421 0.03524730117951699326361847 0.8121024154616947043905384
1.476347195538629808453379 0.03423146369242031916702018 0.8105786592310437743691409
1.457376349410241411774791 0.005741903538549396508738898 0.8131182529487908094978366
1.464752698820483090003108 -0.01283873097430094506465892 0.8204946023590331538599685
1.457376349410241411774791 -0.03141936548715127536235414 0.8131182529487906984755341
1.542016359608645359458023 0.00209815765185014787772011 0.8100817980432049036920716
1.534032719217290452462521 -0.01666666666666668378260496 0.818065438434570357806308
1.542016359608645359458023 -0.0312351756814831862940629 0.8100817980432047926697692
1.525250320704416129302672 -0.0008981303590820414670115035 0.8261484510634982125765191
1.524451562582896713138325 0.000699385883957182692347021 0.8262478233010607242547962
1.526049078825934213199389 -0.03403271921729054960703564 0.8100817980432142295654785
1.516567294429104428843402 -0.01826418290970591162825087 0.818363555147266663603034
1.509382412159267605744617 -0.03403271921729056348482345 0.8102805425183481347062298
1.51726668031306033412875 0.01826418290970587693378135 0.818164810672142195357992
1.50858365403774818958027 0.03423146369241534398009108 0.8103799147559105353622044
1.526049078825934213199389 0.03403271921729054266814174 0.8100817980432142295654785
1.507884268153792284294923 0.002694391077242498828969719 0.8105786592310348925849439
1.515768536307584568589846 -0.0148704059485061934609007 0.8184629273848289532367062
1.507884268153792284294923 -0.03243520297425486059728073 0.8105786592310348925849439
1.591997913749036985819885 0.001987482494182542594463037 0.8099895687451459380667984
1.583995827498073660777322 -0.01666666666666668725205191 0.8179916549961279148561744
1.591997913749036985819885 -0.03134585083915079894989475 0.8099895687451459380667984
1.575312801222764846897917 -0.0006993858839510404701994561 0.8260121871067154231127461
1.574631861198419358061074 0.0006624941647401053632440715 0.8260306329663209545799418
1.575993741247106116887267 -0.03399582749807347065162944 0.8099895687451603709661185
1.566648220807061342441102 -0.01802854671535782798974523 0.8180469925749586090901744
1.55932707458043928738789 -0.03399582749807346371273553 0.8100264604643855337329228
1.567310714971796858918651 0.01802854671535780023416962 0.8180101008557479902449927
1.558646134556093798551046 0.03403271921728434623588555 0.810044906323991176222421
1.575993741247106116887267 0.03399582749807345677384163 0.8099895687451603709661185
1.557983640391357837984287 0.002098157651843954481230003 0.8100817980432016840453002
1.565967280782715853604259 -0.01526789489877374006443489 0.8180654384345640295350677
1.557983640391357837984287 -0.03263394744939140945660938 0.8100817980432016840453002
1.642027805420810615544269 0.002166832524798618670597294 0.8101390271039881074699451
1.634055610841620875817171 -0.0166666666666666594964763 0.8181112216832100436647579
1.642027805420810615544269 -0.03116650080853471463382398 0.8101390271039881074699451
1.625391030425922922475479 -0.0006624941647297021181384213 0.8260535245906528434289839
1.624698644589413820682466 0.0007222775082879598004814703 0.8260236329188737069983972
1.62608341626242247635048 -0.03405561084162128659968971 0.8101390271040115331757647
1.616696558338445832703201 -0.01805143833968432878767096 0.8180215466678968372349345
1.609416749595756090940313 -0.03405561084162129353858361 0.8100792437604772411319232
1.617418835846724300964183 0.01805143833968433572656487 0.8180813300114542219176883
1.608724363759247211191905 0.03399582749806304843298577 0.8100493520886982157236389
1.626083416262422698395085 0.03405561084162129353858361 0.8101390271040115331757647
1.608002086250968520886317 0.0019874824941721325188837 0.8099895687451407200185827
1.616004172501936730910188 -0.01534167833722424253983796 0.8179916549961177008043478
1.608002086250968520886317 -0.03267083916862062453745352 0.8099895687451407200185827
1.692131560106419962963287 0.002789360638411340995862497 0.8106578005319911017778622
1.684263120212840192380099 -0.01666666666666666296592325 0.8185262404256257173784661
1.692131560106420185007892 -0.03054397269492198710438835 0.8106578005319911017778622
1.675568648125372206436623 -0.0007222775082690376536459498 0.8262909256336412600063568
1.674742615931483991076334 0.0009297868795069835637714939 0.8261871709480221870336436
1.676394680319242880273123 -0.03426312021284030895351691 0.8106578005320284052714896
1.666770421352285369565038 -0.01831873105444268429176091 0.8182149763688100208014475
1.659728013652576494862956 -0.03426312021284030895351691 0.8104502911608317816671843
1.667700208231774894329646 0.01831873105444269470010177 0.8184224857400441699439853
1.658901981458688279502667 0.03405561084160238505269547 0.8103465364752127086944711
1.676394680319242880273123 0.03426312021284031589241081 0.8106578005320284052714896
1.657972194579198532693454 0.002166832524779703679496112 0.8101390271039785595519334
1.665944389158397154204749 -0.01522211165015600366212656 0.8181112216831909478287344
1.657972194579198532693454 -0.03261105582509171013638749 0.8101390271039785595519334
1.742501334284392466855707 0.005008005706143295147902972 0.8125066714217505925432761
1.735002668568785155756018 -0.01666666666666667337426411 0.8200053371374643740310262
1.742501334284392466855707 -0.02832532762719003338602874 0.8125066714217505925432761
1.726204441795714084051383 -0.0009297868794756062107986772 0.8271342286751899308683278
1.724904880738250323446437 0.001669335235452135308975574 0.8267644544972015951955768
1.727504002853138098672048 -0.035002668568785484659589 0.8125066714218169838801487
1.7170364408446547876963 -0.01926578878159441315931488 0.8188960146035826337396202
1.710837336186471491217276 -0.035002668568785484659589 0.8117671230659235792614936
1.718705776080066804922808 0.01926578878159439928152707 0.8196355629595426517397527
1.709537775129007508567724 0.03426312021280891739749563 0.8113973488879353546110451
1.727504002853138098672048 0.0350026685687854777206951 0.8125066714218172059247536
1.707868439893595269296611 0.002789360638379945970394269 0.810657800531975447633215
1.715736879787190805046748 -0.01480709290776231409902941 0.8185262404255944090891717
1.707868439893595713385821 -0.03240354645390456506115484 0.810657800531975447633215
1.794788131492392579957595 0.01872878895381801384045772 0.8239406574614249745280858
1.78957626298478555959548 -0.01666666666666666990481716 0.8291525259693020011297904
1.794788131492392579957595 -0.01460454437951531903028268 0.8239406574614249745280858
1.780408262033754684949827 -0.001669335235394489580507127 0.8320775972691497601729793
1.776452129590331274755499 0.006242929651452610098627538 0.8297908000611207146590687
1.784364394477051307674742 -0.03957626298478595511243228 0.8239406574615678602313551
1.768953463874695319901775 -0.02457893155351377478812225 0.8222921343454356879476563
1.767697727810384922264575 -0.03957626298478595511243228 0.8193670630457307035854342
1.775196393526021099162904 0.02457893155351376091033444 0.826865728761415619274544
1.763741595366961512070247 0.03500266856872780857345973 0.8170802658377016580715235
1.784364394477051529719347 0.03957626298478594817353837 0.8239406574615678602313551
1.757498665715635732809119 0.005008005706085627735391075 0.8125066714217217267446358
1.764997331431271465618238 -0.01332799619597551873950714 0.8200053371374066424337457
1.757498665715635732809119 -0.03166399809803666087759666 0.8125066714217217267446358
1.826059342537827534513895 -0.01872878895450147407331087 0.844788131492328675520298
1.820847474030420798385421 0.004180807363489420780400252 0.839576262984657484267359
1.826059342537827534513895 0.02709040368148032951189919 0.844788131492328675520298
1.815635605522749163043272 -0.03957626298465757169742218 0.8343643944768448506010827
1.815635605522749163043272 0.03957626298465756475852828 0.8343643944768448506010827
1.805211868507671013617255 0.01872878895368962695600068 0.823940657461360914659565
1.810423737015342426914799 -0.004180807364301278306051302 0.8291525259691736593481437
1.805211868507671013617255 -0.02709040368229217315976243 0.823940657461360914659565
1.342252420148603686556044 0.003514520891624357823435076 0.8612621007430206754307278
1.334504840297207284294245 -0.01666666666666666296592325 0.8690096805944156344025942
1.342252420148603686556044 -0.02981881244170897504730533 0.8612621007430206754307278
1.318497098077813678429493 -0.01534881777212043427183197 0.8845048402972068846139564
1.310236935709816474826539 -0.03318699140266087588280186 0.8922524201486032868757547
1.310236935709816474826539 0.002489355858420011675946615 0.8922524201486035089203597
1.326757260445809771809422 -0.0345048402972071080463401 0.8612621007430183439623761
1.31074951822641616594467 -0.034504840297207114985234 0.8767572604458095941737383
1.31074951822641616594467 0.034504840297207114985234 0.8767572604458095941737383
1.326757260445809771809422 0.034504840297207114985234 0.8612621007430181219177712
1.388150696477593815103546 0.0004224915037371790218351242 0.8622717950261433728087468
1.381892216866599909508295 -0.0129394507257251326765024 0.8689527661408745773385931
1.374836738021798954179076 -0.001171506963876504979829574 0.8760082449856751996009052
1.374039738787992348534317 0.0004224915037371831418033796 0.8763827527157449504002784
1.373770129285134533603241 -0.03002860889612897835054817 0.8608306785594093124558412
1.378165000925654526398034 -0.04627278405905847075141324 0.8522860994742074147723088
1.366292158936597056495543 -0.01826066513428035303912011 0.8686351728643486591607825
1.358967070588938952369062 -0.03375582483707050690524554 0.8601385775528138655232624
1.366714650440333800318626 0.01826066513428035997801402 0.8678861574042101567627583
1.358170071355132124679699 0.03450484029720984890943214 0.8605130852828835053003331
1.386287088507119680258484 0.03002860889612897835054817 0.8604081870556727906773631
1.371906521314660398758178 0.03375582483707052078303334 0.8589670705889386193021551
1.392545568118113807898339 -0.01666666666666666990481716 0.8537272159409413641029118
1.390681960147639673053277 0.005485018843835559078370157 0.8518636079704707819715281
1.390681960147639673053277 0.03881835217716889802064273 0.8518636079704707819715281
1.357747579851395380856616 0.003514520891627089145548002 0.8612621007430220076983574
1.36549515970279022880618 -0.01432365273891608725698177 0.8690096805944184099601557
1.357747579851395158812011 -0.03216182636945925932270285 0.8612621007430221187206598
1.841901783844609896689803 0.001410703067564829295971185 0.8595089192229550256740822
1.833803567689219704561765 -0.0166666666666666594964763 0.8676071353783920692137599
1.841901783844609896689803 -0.03192263026576850487581183 0.8595089192229550256740822
1.825301017395823510724995 -0.0003384339201255430495431098 0.8756394513159487802411718
1.824896683257817509016263 0.0004702343558862647236382126 0.875573551098068447728906
1.824204056033692733507223 -0.02337983067454295696419031 0.863780319018614628490127
1.835658854193021216616444 -0.03380356768921959076390493 0.8590386848671156538870264
1.821944435391885441788418 -0.007051597928001834825195715 0.8722828693120107113045947
1.821944435391885441788418 0.007051597928001838294642667 0.8722828693120107113045947
1.824204056033692733507223 0.02337983067454295696419031 0.863780319018614628490127
1.835658854193021216616444 0.03380356768921960464169274 0.8590386848671156538870264
1.826059342537494245561902 -0.01872878895516726788228468 0.8552118685073382131633934
1.820847474029754664570646 0.004180807363489428586655894 0.8604237370146764485312474
1.826059342537494245561902 0.02709040368214613025976689 0.8552118685073383241856959
1.818587853387947150807236 0.0003384339201255477658225601 0.8689262873080725313457151
1.821540101253879218035081 -0.006242929651990026564123415 0.8722169690941302677700264
1.892111322218476665568687 0.002667933310738041137455401 0.86055661109226133653749
1.884222644436953197910611 -0.01666666666666666296592325 0.8684452888738454223727103
1.892111322218476665568687 -0.03066540002259529953954065 0.86055661109226133653749
1.875654193925688995037149 -0.0004702343558620043989862425 0.8761244282815506823069995
1.874974421195947815732552 0.000889311103619799315535277 0.8759148899076718564060684
1.87633396665538798586681 -0.03422264443695310909276941 0.8605566110922802103289087
1.866876205040545855240453 -0.01802621212614845952471043 0.8678166737522468032750567
1.859667299988721378412038 -0.03422264443695310909276941 0.8601375343445603061098836
1.867765516144123560948742 0.01802621212614848034139214 0.8682357504999853592408954
1.858987527258980421152046 0.03380356768919536014639249 0.8599279959706814802089525
1.87633396665538798586681 0.03422264443695312297055722 0.8605566110922802103289087
1.858098216155402493399151 0.00141070306754059043852223 0.8595089192229428132208113
1.866196432310804675935856 -0.0157261979549880928641592 0.8676071353783678663518231
1.858098216155402493399151 -0.03286309897751678310573453 0.8595089192229430352654163
1.943372822310762249031768 0.01023693386431468940744871 0.8668641115535526964208657
1.936745644621524320427852 -0.0166666666666666594964763 0.8734912892429195219179405
1.943372822310762249031768 -0.02309639946901864693273865 0.8668641115535526964208657
1.927967655736390728549168 -0.0008893111035998494534604575 0.8788569668399907053313314
1.925816844540495509363609 0.003412311288190797951835886 0.8775954667476952852922523
1.930118466932154941417821 -0.03674564462152411781215022 0.8668641115535502539302115
1.917928166758962049698312 -0.02096828905845731297330481 0.8697067889661211914642536
1.913451800265488333963049 -0.03674564462152413168993803 0.8643411113690474545379061
1.921340478047021793628346 0.02096828905845732338164566 0.8722297891506214373436023
1.91130098906959267068828 0.0342226444369331944672652 0.8630796112767519234765246
1.930118466932154941417821 0.03674564462152413168993803 0.866864111553550142907909
1.907888677781533370847455 0.002667933310718110465759034 0.8605566110922514555525709
1.915777355563066608468148 -0.0148880444595484127956464 0.868445288873825660402872
1.907888677781533370847455 -0.03244402222981494082754139 0.8605566110922514555525709
1.983176918128106702710056 -0.01019590418265360447225287 0.8933728223107599841767978
1.976529225597913219658608 0.009883073772199961123940959 0.8867456446215201681937401
1.983176918128106702710056 0.02996205172705352498541131 0.8933728223107599841767978
1.969902047908673292653248 -0.03674564462152023203156403 0.8801184669321553410981096
1.969902047908673292653248 0.03674564462152023203156403 0.8801184669321553410981096
1.956627177689239882596439 0.01023693386431079321852167 0.8668641115535506980194214
1.963254355378479809601799 -0.009842044090542770642948689 0.8734912892429155251150519
1.956627177689239882596439 -0.02992102204539633450441904 0.8668641115535505869971189
1.29220530908563069338868 0.002285925915175827331099478 0.910080616829545108181776
1.284410618171261342368439 -0.01666666666666668378260496 0.9183482720432186718895196
1.29220530908563069338868 -0.03104740741815751117749222 0.910080616829545108181776
1.268821236342514646722179 -0.01451209699082718108942291 0.9344106181712614755952018
1.261026545428137080051556 -0.03225604849542193508504795 0.9422053090856308266154429
1.261026545428137080051556 0.003231854513767594590245569 0.9422053090856306045708379
1.276615927256886884322284 -0.03441061817126143951295347 0.9105535811288441028210627
1.261026545428140188676025 -0.03441061817126143257405957 0.926615927256886906526745
1.261026545428140188676025 0.03441061817126142563516566 0.9266159272568867955044425
1.276615927256886884322284 0.03441061817126142563516566 0.9105535811288439917987603
1.304147466901591112531378 -0.04336032787438455493589373 0.9034885424543177556699902
1.303488542454317666852148 -0.04336032787438455493589373 0.9040928629929416704413825
1.303488542454317666852148 0.04336032787438455493589373 0.9040928629929416704413825
1.304147466901591112531378 0.04336032787438455493589373 0.9034885424543178666922927
1.304637684957353993553397 -0.04204247897983831583346159 0.9033198360628076351019899
1.307298596572888715883209 -0.0153488177721204394760024 0.9066396721256154700441243
1.304637684957353993553397 0.01134484343559744902452113 0.9033198360628077461242924
1.306639672125615492248585 -0.01545802558941894097599423 0.9072439926642392737932141
1.303319836062807768328753 0.01123563561829894925925277 0.9045284771400554646447745
1.303319836062807768328753 -0.04215168679713682253762386 0.9045284771400554646447745
1.991960117572820099240971 0.001787126063308869423906788 0.9098270084904891419341766
1.983920235145639754392732 -0.01666666666666668031315801 0.9178536806044741425125721
1.991960117572820099240971 -0.03154620727002446778364231 0.9098270084904891419341766
1.975423689898851087320963 -0.0003264238269111978830300247 0.9257501137257615475562034
1.974967027079242321008223 0.0005869018123060378878952381 0.925619874733063952021439
1.978570053233823289318138 -0.02058343759583336485263771 0.9152951830143893907631991
1.988568321125586679798403 -0.03392023514563939634580692 0.9092268963649876578614339
1.973465304434267597599728 -0.004243194756077882205669294 0.9237917282611781688572705
1.973465304434267597599728 0.00424319475607784924592325 0.9237917282611781688572705
1.978570053233823289318138 0.020583437595833344035956 0.9152951830143893907631991
1.988568321125586679798403 0.03392023514563938940691301 0.9092268963649876578614339
1.983218139213770214723809 -0.01011346201132734198835372 0.9066683987749029061120609
1.976611667769240021641508 0.009883073772199950715600103 0.9133367975498060120642663
1.983218139213770214723809 0.02987960955572725035844783 0.9066683987749029061120609
1.971506918969684329923098 0.0003264238269111655738052846 0.9218333427965947901583377
1.973008641614658831286988 -0.003329869116860646217903597 0.9236614892684805733225062
2.042708674886636543988061 0.006252049319739202970502845 0.9135433744331025174290062
2.035417349773273265611806 -0.01666666666666667684371106 0.9208346995465064299679625
2.042708674886636543988061 -0.02708128401359413683913147 0.9135433744331025174290062
2.026781761069411658127137 -0.0006045107410568451716814664 0.9273862718104687319353729
2.025437497478913329018724 0.00208401643994015088254268 0.9266465189610270103415246
2.028112248222564417687863 -0.03541734977327350153419872 0.9135295979957970269325074
2.01740641951610832904862 -0.01935519384766367506633955 0.9186110423826666648849937
2.011445581555897810233091 -0.03541734977327350847309262 0.9120456936813989834433869
2.019476659518702366113985 0.01935519384766365424965784 0.9200811702597593288999178
2.010101317965399037035468 0.03393784407439016242991059 0.911305940831957372871841
2.028112248222563973598653 0.03541734977327350153419872 0.9135295979957970269325074
2.008031077962804999970103 0.00180473499205964504898958 0.9098358129548645978346144
2.016062155925609999940207 -0.01546644241566385788444471 0.9178712895332250543134478
2.008031077962804999970103 -0.0327376198233873538789851 0.9098358129548645978346144
2.086815546376524110883111 -0.005893128510110924936360455 0.9427086748866346788133797
2.079344760858309992812565 0.01285755459649199662630625 0.9354173497732694020356803
2.086815546376524110883111 0.03160823770309491298480253 0.9427086748866346788133797
2.072053435744944493990261 -0.03541734977326958799803691 0.9281260246598674878981683
2.072053435744944493990261 0.03541734977326958799803691 0.9281260246598674878981683
2.05729132511336487709741 0.006252049319735293771149731 0.9135433744331004080052594
2.064582650226730375919715 -0.01249863378686762518943176 0.9208346995465023221427714
2.05729132511336487709741 -0.03124931689347055022154542 0.9135433744331004080052594
1.276291219176389324374554 0.0004278686769037744370980381 0.9741366495005145953456349
1.2759665110958726685908 -0.001077284837937295472465316 0.9748892262579351708495778
1.267522404020466231244768 -0.01581092931287482461488736 0.9837612020102370902208122
1.259403005025576671727094 -0.03290546465644525464533388 0.9918806010051186561327086
1.259403005025576671727094 0.00128360603069558915252657 0.9918806010051186561327086
1.267847112100983775206942 -0.0181718201815077202987414 0.9667698272630463884880214
1.260377129267118423427974 -0.03441061817127063354737615 0.9582225595912611249005408
1.259403005025577559905514 -0.03376120201023707911858196 0.9756418030153484188815582
1.259403005025577559905514 0.03376120201023709993526367 0.9756418030153481968369533
1.268496528262007316811832 0.01817182018150775152376397 0.9663419585861499072620973
1.260052421186601545599615 0.03376120201023709993526367 0.9589751363486815893821813
1.268821236342523750550981 -0.01666666666666664908813544 0.9655893818287293317581543
1.261026545428141520943655 -0.03010147881955651041896438 0.9577946909143647546969191
1.261026545428141520943655 0.003231854513776822885456896 0.9577946909143646436746167
2.091880672276797969999507 0.001677281254438082232910423 0.9597966089776398534993973
2.083761344553596295270381 -0.01666666666666666990481716 0.9677193129040169150556494
2.091880672276797969999507 -0.03165605207889525540831954 0.9597966089776398534993973
2.075330353911037928327232 -0.0001953146184495110925828654 0.9755256685294872998071014
2.075018690991681680202419 0.0004280112202627411573455096 0.9754093202285807340246038
2.080973454578165515727051 -0.01843333454735342213925975 0.9662113439465859210386611
2.089976116241710535348375 -0.03376134455359607045021875 0.9591719739605522043746078
2.074447019970694583435034 -0.001961982499136265441219695 0.9746423345891438438926002
2.074447019970694583435034 0.001961982499136274982198813 0.9746423345891439549149027
2.080973454578165515727051 0.01843333454735342907815365 0.9662113439465859210386611
2.089976116241710535348375 0.03376134455359608432800655 0.9591719739605522043746078
2.087188226266280199894254 -0.005147768730598691402922107 0.957664005003121099335317
2.080090120637822170834852 0.01285755459649199662630625 0.9653280100062424651241599
2.087188226266280199894254 0.03086287792358268292081114 0.957664005003121099335317
2.073563686030351238542835 0.0001953146184495204167215487 0.9737590006488006100227039
2.07413535705133877939943 -0.001338656660424013353921646 0.9745259862882372781101026
2.143498489018779373793677 0.01099093411265184699887598 0.9674924450938722220172394
2.136996978037558836405196 -0.01666666666666666296592325 0.973993956075105415948201
2.143498489018779373793677 -0.02234239922068148587186442 0.9674924450938722220172394
2.12831908350174536792565 -0.0006891224049611314886668034 0.9790082059067062303370221
2.126142699947151548656166 0.003663644704225690971327589 0.9775209447570738507948818
2.130211506004386912138671 -0.0369969780375590251431106 0.9672084840419337137262801
2.118153927816298853770149 -0.02101943377585348965430612 0.969467685238347698373218
2.113544839337720748773108 -0.0369969780375590251431106 0.9641694743548083756934375
2.121533611468573443659125 0.02101943377585349659320002 0.9722227338735345281151012
2.111368455783127373592833 0.03402245573829448116454088 0.962682213205176218195902
2.13021150600438780031709 0.0369969780375590251431106 0.9672084840419337137262801
2.107988772130852783703858 0.001938392439136481237849097 0.9599271645699891664094139
2.115977544261705478589874 -0.0154173966324913248177042 0.9679804240887153188310776
2.107988772130852783703858 -0.03277318570411913434270446 0.9599271645699891664094139
2.182507554906094604518785 -0.01099093411268431755289932 0.9934984890187792405669143
2.176006043924877619843983 0.009339377258207827783853539 0.986996978037558592156131
2.182507554906094604518785 0.02966968862909997312060639 0.9934984890187792405669143
2.169504532943657526544712 -0.03699697803755881003739958 0.9804954670563257312920769
2.169504532943657526544712 0.03699697803755881697629349 0.9804954670563257312920769
2.156501510981220448570639 0.01099093411265163536261191 0.967492445093872110994937
2.16300302196244054186991 -0.009339377258240504769970514 0.9739939560751050828812936
2.156501510981220448570639 -0.02966968862913265184144684 0.967492445093872110994937
1.275614561079676967381147 0.0003733848055467021932393723 1.024758823725869349985373
1.275587319143998366044457 -0.0004278686769037518856928504 1.025159450467094668368873
1.267413436277752492031823 -0.01591989705558839382493197 1.033706718138879931956353
1.259266795347184997311274 -0.0329599485278017564904296 1.041853359069439877160335
1.259266795347184997311274 0.001120154416624975779459561 1.041853359069439877160335
1.267440678213431759502328 -0.01746792014911711932168004 1.017012809536527839782138
1.259348521154220579276739 -0.03376120201023707911858196 1.008492783800420955486743
1.259266795347185663445089 -0.03370671813888002910086783 1.025560077208313103369619
1.259266795347185663445089 0.03370671813888004297865564 1.025560077208313103369619
1.267495162084787407863473 0.01746792014911712279112699 1.016639424730988006118082
1.259321279218541977940049 0.03370671813888004297865564 1.008893410541646495914847
1.267522404020466009200163 -0.01666666666666666296592325 1.016238797989762687734583
1.259403005025576671727094 -0.03204972730263774827186296 1.008119398994881343867291
1.259403005025576671727094 0.00128360603069558286415397 1.008119398994881343867291
2.192496910167483381570719 0.004981461004898818725750154 1.012484550837414953861071
2.184993820334967029594964 -0.0166666666666666664353702 1.019987640669932860149061
2.192496910167483381570719 -0.02835187232843451587971373 1.012484550837414953861071
2.176446453902022515336512 -0.000428066199221621029348539 1.026874520101244359082671
2.175402177301594797143025 0.0016604870016338907096759 1.026258309700037951728291
2.17866810977780467339926 -0.02199079837253269456565086 1.015665087815367240153819
2.18883326546325385209002 -0.03499382033496722943510804 1.010824063835782604670044
2.173784388049089688621507 -0.005752197905087652086975059 1.024212454248311310323061
2.173784388049089688621507 0.005752197905087655556422011 1.024212454248311310323061
2.17866810977780467339926 0.02199079837253270497399171 1.015665087815367240153819
2.18883326546325385209002 0.03499382033496722943510804 1.010824063835782604670044
2.182507554906091939983526 -0.01099093411269098409521749 1.006501510981216984674802
2.176006043924871846684255 0.009339377258207826049130063 1.013003021962434191394209
2.182507554906091939983526 0.02966968862910663445875414 1.006501510981216984674802
2.171122322196156861906502 0.0004280661992216253661572289 1.021550388395378039518846
2.17274011144866197042802 -0.003663644704232140673211271 1.023596243847104902968681
2.23751544916258104933604 -0.004981461004902482461731417 1.042496910167483470388561
2.230012359330064697360285 0.01334569266339807880328294 1.034993820334967118412806
2.23751544916258104933604 0.03167284633169864527246773 1.042496910167483470388561
2.22250926949754834538453 -0.03499382033496722943510804 1.027490730502449212124816