# geometry NO_DATA 684
#  x  y  z
1.448228996091872611273743 0.04614369800024938073068625 0.9479147019083766778635436
1.446457992183745489001012 -0.01666666666666674970209705 0.9463008450919973002513075
1.448228996091872611273743 0.01281036466691604959466932 0.9479147019083766778635436
1.445880112462458955135958 0.01551090722409363686917771 0.9464579921837454890010122
1.447073236649299321499029 -0.01428041829298508022527692 0.9482289960918726112737431
1.447073236649299765588239 0.04530223274117243376091224 0.9482289960918728333183481
1.448120740444383658385163 -0.04645799218374546679655168 0.9479635933526358027023662
1.447542860723097568609319 -0.04645799218374546679655168 0.9481207404443838804297684
1.447542860723097568609319 0.04645799218374539046871874 0.9481207404443839914520709
1.448120740444383880429768 0.04645799218374539046871874 0.9479635933526360247469711
1.48386339417414925279104 0.01560654498503404041809262 0.9322732116517005174216592
1.49193169708707462639552 0.03280327249251700771903728 0.9403415145646256689815345
1.49193169708707462639552 -0.00159018252244893317122465 0.9403415145646256689815345
1.48300174420736041724922 -0.01759447387173693200246305 0.9324716833665439574829747
1.491533950722820467404972 -0.03386339417414963026686792 0.9404738290411880363706132
1.474403380453618739309718 -0.03373107969758730451115269 0.9409129000285375576950742
1.474403380453618739309718 0.0337310796975873114500466 0.9409129000285375576950742
1.48300174420736041724922 0.01759447387173695281914476 0.9324716833665440685052772
1.491533950722820467404972 0.03386339417414964414465572 0.9404738290411880363706132
1.475331187658689202635287 -0.0003977463642539599310288256 0.9242710659770565495563233
1.47486728405615430403941 0.0005300608408163166949261802 0.924337223215337844273165
1.466268920302412626099908 0.01635237248317067751401943 0.932778439877331333462962
1.458134460151206290845494 0.03341678551409131558980192 0.9411534993010436389582196
1.458134460151206290845494 -0.0007120405477499654406728369 0.9411534993010436389582196
1.533970205355085880682964 0.01539292262316131407184905 0.9320595892898277945448626
1.54198510267754329561285 0.03269646131158065321953288 0.9400744866122847653855388
1.54198510267754285152364 -0.001910616065258020088504787 0.9400744866122847653855388
1.532856678082985313338327 -0.01783359952923564695215219 0.9322198060612323367024601
1.541455041836726547188618 -0.03397020535508599170526622 0.9401812977932211268239371
1.524204908738775232635021 -0.03386339417414964414465572 0.9403415145646256689815345
1.524204908738775232635021 0.03386339417414965108354963 0.9403415145646256689815345
1.532856678082985091293722 0.01783359952923565736049305 0.9322198060612323367024601
1.541455041836726547188618 0.03397020535508600558305403 0.9401812977932211268239371
1.525371841601344202743462 -0.0005300608408163107318142315 0.9240980975578387823787807
1.524788375170059939733846 0.0006368720217526742301966669 0.9241515031483069630979799
1.516136605825850303119751 0.01560654498503403694864566 0.9322732116517002953770543
1.50806830291292492951527 0.03280327249251702159682509 0.9403415145646256689815345
1.50806830291292492951527 -0.001590182522448947049012458 0.9403415145646256689815345
1.584004225393299103430422 0.01532488254673628792768003 0.9319915492134028811577195
1.592002112696649707146435 0.03266244127336814795370401 0.9399894365167537069183368
1.592002112696649707146435 -0.002012676179895573833067424 0.9399894365167537069183368
1.582713471330687626803524 -0.01797443074838452406472022 0.9320425792707216494648037
1.591365240674897041373015 -0.03400422539329853166556461 0.9400234565549661081007571
1.574044691967371178975554 -0.03397020535508599864416013 0.9400744866122848764078412
1.574044691967371178975554 0.03397020535508601252194794 0.9400744866122848764078412
1.582713471330687404758919 0.01797443074838452753416718 0.9320425792707217604871062
1.591365240674897041373015 0.03400422539329853166556461 0.9400234565549661081007571
1.575352456049089244771721 -0.0006368720217526650144782008 0.9240106719291585335440686
1.574698574008230433918243 0.0006708920599651938074942104 0.9240276819482646786241276
1.566029794644914208134878 0.01539292262316131233712557 0.9320595892898279055671651
1.558014897322457237294202 0.03269646131158064628063897 0.9400744866122847653855388
1.558014897322457237294202 -0.001910616065258021172706959 0.9400744866122847653855388
1.633952340339801967417088 0.01542865265372990804526587 0.9320953193203963538238099
1.641976170169901161344228 0.03271432632686496755347605 0.9401191491504956587732522
1.641976170169901161344228 -0.001857021019405165340732111 0.9401191491504954367286473
1.632636498746619979627326 -0.01795656573310024789469352 0.9320174917401510272796372
1.641305278109935983366086 -0.03395234033980173288247428 0.9400672640969985893732996
1.623993661910052566099694 -0.03400422539329852472667071 0.9399894365167535958960343
1.623993661910052566099694 0.03400422539329853166556461 0.9399894365167535958960343
1.632636498746619979627326 0.01795656573310027218082219 0.9320174917401511383019397
1.641305278109935983366086 0.03395234033980173982136819 0.9400672640969987003956021
1.625283560976486185722933 -0.0006708920599651732076529331 0.9240455469635487917301475
1.624638611443269375911314 0.0006190070064684170337079849 0.9240196044368003125413225
1.615995774606701740339076 0.01532488254673629660129741 0.9319915492134027701354171
1.607997887303351136623064 0.03266244127336814795370401 0.9399894365167535958960343
1.607997887303351136623064 -0.002012676179895568628896996 0.9399894365167535958960343
1.68385295294463910309446 0.01562742744405446609912147 0.9322940941107207279969771
1.691926476472319418320467 0.03281371372202723790678647 0.9403676176384010432229843
1.691926476472319418320467 -0.001558858833918306142224397 0.9403676176384011542452868
1.682664632629283563147737 -0.01780529328444115794161107 0.9321450130179773641003749
1.691307469465851198719974 -0.03385295294463944171248215 0.940268230243238911647552
1.674071489490297270918973 -0.03395234033980172594358038 0.9401191491504954367286473
1.674071489490297270918973 0.03395234033980172594358038 0.9401191491504956587732522
1.682664632629283563147737 0.01780529328444115794161107 0.9321450130179773641003749
1.691307469465851198719974 0.03385295294463944171248215 0.9402682302432388006252495
1.675210116108071689566827 -0.0006190070064683852665843311 0.9241708768854591804498
1.674640802799184147175993 0.0005196196113061037459915359 0.924121183187878170173235
1.666047659660198299036438 0.01542865265372989763692502 0.9320953193203962428015075
1.658023829830099105109298 0.03271432632686495367568824 0.9401191491504956587732522
1.658023829830099105109298 -0.001857021019405158401838207 0.9401191491504954367286473
1.733749810727535534127242 0.01583549267164229695792343 0.9325012689416186661972574
1.741874905363767656041318 0.03291863673251130273378351 0.9406272539745408334255217
1.741874905363767656041318 -0.001247651389226690603340142 0.9406272539745410554701266
1.732763246484204433528475 -0.01760276367217510767870792 0.9323467690900022475375408
1.74135638962319072575724 -0.03374981072753566180288942 0.9405243252314764434984795
1.724221674453769725943175 -0.03385295294463944171248215 0.9403687215091306450531761
1.724221674453769725943175 0.03385295294463944171248215 0.9403687215091305340308736
1.732763246484204433528475 0.01760276367217509033147316 0.9323467690900020254929359
1.74135638962319072575724 0.03374981072753566180288942 0.940524325231476332476177
1.725156667588549241898477 -0.0005196196113061203342847749 0.9243237128001444702363187
1.724688619085794849539184 0.0004164773942023129401669712 0.9242721416915925525259468
1.716147047055360363998489 0.01562742744405445222133366 0.9322940941107208390192795
1.708073523527680048772481 0.03281371372202723790678647 0.9403676176384011542452868
1.708073523527680048772481 -0.001558858833918312213756563 0.9403676176384012652675892
1.777744746395919950288089 0.004838371972945895889417489 0.9270936255770255707275851
1.780001152177669299092599 -0.0003255604094473795590003462 0.9296755917682221204145776
1.776366153333407638115204 -0.006944437279076402097510723 0.9381717053062790245832048
1.770474748707396628333299 -0.02844947591868897743272449 0.9440858526531394900871419
1.770474748707396184244089 0.01456060136053618538076737 0.9440858526531394900871419
1.777375508580248730794438 -0.00557684760428865666792575 0.9270499481708014410941132
1.768879395042191937648113 -0.02191795386150794527901908 0.9351304747113463600172167
1.765613634013601274119765 -0.03817170530627925217892482 0.9436702656556273938193158
1.768879395042191493558903 0.02191795386150793834012518 0.9351304747113462489949143
1.765613634013601274119765 0.03817170530627925217892482 0.9436702656556272827970133
1.777375508580248730794438 0.005576847604288627177626658 0.9270499481708014410941132
1.775119102798499604034532 -0.0004129152218953810568775886 0.9244679819796047803848182
1.774749864982828384540881 0.0003255604094473509360629926 0.9244243045733808727959513
1.766253751444771147305346 0.01583549267164230042737039 0.9325048311139255696744499
1.758126875722385351608068 0.03291507456020433680654591 0.9406290350606943961864204
1.758126875722385573652673 -0.001244089216919723375059936 0.9406290350606945072087228
1.384741047405624314592387 0.0138512385220850887945776 0.9805179051887515928598305
1.392370523702811890842668 0.03192561926104250935587459 0.9881473814859395021770183
1.392370523702812334931878 -0.004223142216872362991741952 0.9881473814859396131993208
1.387894984909488371727093 -0.004526018108614211082896261 0.9924210030181022101913868
1.380315987927590359873875 0.01364932126092385789029038 0.9848420060362045314050761
1.387894984909488371727093 0.03182466063046189563845445 0.9924210030181022101913868
1.383490836242293520186308 -0.01843861682374745014634243 0.982083122170002820183754
1.392006287618022142282825 -0.03474104740562408699666719 0.9891908594734403203929674
1.382032642854712500835035 -0.01853957545432806733320952 0.9835413155575838395350274
1.389039421527569651004796 -0.03484200603620470071408732 0.9920567669333122395869395
1.382032642854712500835035 0.0185395754543281263138077 0.9835413155575838395350274
1.389039421527569651004796 0.03484200603620472846966294 0.9920567669333122395869395
1.383490836242293520186308 0.01843861682374751259638757 0.982083122170002820183754
1.392006287618021698193616 0.0347410474056241147522428 0.9891908594734403203929674
1.37622559602989569249587 -0.0003642360847899983600228779 0.9734101678853140926506171
1.375339620951355090738844 0.001407714072290820045418869 0.9739319068790643907362892
1.37388142756377407138757 0.001508672702871434196519873 0.9753901002666454100875626
1.373309209254733653793323 -0.000364236084789999932116028 0.976326554660476131353164
1.438977215836943823745742 -0.03474104740562413556892452 0.9728884288915637945649451
1.422888428891563750156024 -0.03474104740562412863003061 0.9881473814859396131993208
1.422888428891563750156024 0.03474104740562413556892452 0.9881473814859395021770183
1.438977215836943823745742 0.03474104740562414250781842 0.9728884288915635725203401
1.439807050187948078701083 -0.00256347351486375333445844 0.9576294762971878649082669
1.431347739539755803406251 0.01551090722409372013590456 0.9652589525943757742254547
1.439807050187948078701083 0.03358528796305118580001192 0.9576294762971878649082669
1.415258952594375729816534 0.01385123852208506103900199 0.980517905188751481837528
1.407629476297187931521648 0.03192561926104252323366239 0.9881473814859395021770183
1.407629476297187931521648 -0.004223142216872406359828851 0.9881473814859395021770183
1.788202009511721257695172 0.006929314309890984187323415 0.973595980976557529018578
1.794101004755860984118954 0.0284646571549454947824831 0.9794949762206970333977551
1.794101004755860984118954 -0.01460602853516354895924145 0.9794949762206970333977551
1.782295452782989286788506 -0.03820200951172118136733857 0.9676969857324181356617032
1.782295452782989286788506 0.03820200951172120218402029 0.9676969857324181356617032
1.776396457538849560364724 -0.01666666666666664908813544 0.9617979904882787423048285
1.770489900810117589458059 -0.018742427767355202689048 0.9558989952441392379256513
1.770489900810117589458059 0.01459090556597813538586283 0.9558989952441392379256513
1.834478283037669577026918 0.01437676725799452367993148 0.9810434339246613122398344
1.842239141518835054966985 0.03218838362899728577914971 0.9888042924058264571129939
1.842239141518835054966985 -0.003434849113008254465478908 0.9888042924058264571129939
1.826602793917919687061158 -0.02268029254939060712636945 0.9754578442135836136017701
1.837370465340447012181357 -0.03447828303766942853458843 0.9850805659317747320358194
1.817696985732418335501848 -0.03820200951172118136733857 0.9794949762206971444200576
1.817696985732418335501848 0.03820200951172120218402029 0.9794949762206971444200576
1.826602793917919687061158 0.02268029254939064182083897 0.9754578442135836136017701
1.837370465340447012181357 0.03447828303766945629016405 0.9850805659317748430581219
1.823710611615142029862113 -0.004868676178387825945192979 0.9714207122064701938057851
1.820703798673779960637376 0.001144949704336127973072768 0.9695588489694443312671979
1.81179799048827883112267 0.006929314309890980717876463 0.9735959809765578620854853
1.805898995244139548788098 0.0284646571549454947824831 0.9794949762206970333977551
1.805898995244139548788098 -0.01460602853516354895924145 0.9794949762206971444200576
1.883866513141611687132126 0.01560040649105133916951793 0.9822670234372470332573357
1.891933256570805799157142 0.03280025296599663187091522 0.99033381658691199689315
1.891933256570805799157142 -0.001599439983893961554975438 0.9903338165869121079154525
1.881882601402386168132352 -0.01834479617928135020132885 0.981349421594107651500849
1.890788409587887297647057 -0.0338665131416119591367675 0.989722099691801471266217
1.873282678164913672702596 -0.03447828303766938690122501 0.9888043951272440512667572
1.873282678164913672702596 0.03447828303766939384011891 0.9888043951272440512667572
1.881882601402386168132352 0.01834479617928135714022275 0.9813494215941075404785465
1.890788409587887297647057 0.0338665131416119660756614 0.9897220996918012492216121
1.874960704956110557617421 -0.001144949704336048609473742 0.9738943453395532134919677
1.874121640199803318083127 0.0005331798082786359154264244 0.9735884603915245794070188
1.865521716962330822653371 0.01437676725799450980214367 0.9810434339246612012175319
1.857760858481165566757909 0.03218838362899723026799848 0.9888042924058263460906915
1.857760858481165566757909 -0.003434849113008212832115484 0.9888042924058263460906915
1.926891067104900878703688 0.003121703101927715377772454 0.9762306359970268632153534
1.928286810878895973786484 -0.0003302155539370247444574957 0.9779565953249591547802311
1.92291080631377564458262 -0.01042179357630395632183795 0.9864550364352611122598091
1.916139057974659554162145 -0.03021016334489833726761887 0.993227518217630667152207
1.916139057974659554162145 0.009366576192290424623942968 0.9932275182176304451076021
1.926459468865654445224322 -0.003984899580420719379658667 0.9761292533117174041734643
1.917961027755352265700139 -0.02032135069315036193793311 0.9840945643342117188367979
1.913016621429478369975641 -0.03645503643526104564642765 0.9926943881298229133136601
1.917961027755352265700139 0.02032135069315036193793311 0.9840945643342116078144954
1.913016621429478592020246 0.03645503643526105258532155 0.9926943881298228022913577
1.926459468865654223179718 0.003984899580420717644935191 0.9761292533117174041734643
1.925063725091658906052317 -0.0005329809245559793658489345 0.9744032939837851126085866
1.924632126852412472572951 0.0003302155539370234434148887 0.974301911298475542544395
1.916133685742110515093373 0.01560040649105133049590055 0.9822672223209696351631237
1.90806684287105499109316 0.032800054082273974453976 0.9903339160287734088683465
1.90806684287105499109316 -0.001599241100171315413738804 0.9903339160287734088683465
1.383897813552737332543074 -0.009322623736715470246783077 1.043220437289452462437112
1.37711825084218952852666 0.01045158417552300052222325 1.036440874578905102509907
1.383897813552737332543074 0.03022579208776149384263476 1.043220437289452462437112
1.387894984909488371727093 -0.03484200603620477010302636 1.022736990945692703292025
1.379516553656240152037071 -0.02128288061510993922631485 1.032624094901811950819592
1.385496682095437748216682 -0.03644087457890514414327043 1.041711764586580990510356
1.379516553656240152037071 0.02128288061510991840963314 1.032624094901811950819592
1.385496682095437748216682 0.03644087457890513720437653 1.041711764586580990510356
1.387894984909488371727093 0.03484200603620477704192027 1.022736990945692703292025
1.387894984909488371727093 -0.004526018108614286543367466 1.007578996981897567764008
1.380315987927590359873875 0.01364932126092382493054433 1.015157993963795135528017
1.387894984909488371727093 0.03182466063046193727181787 1.007578996981897567764008
1.371937556674342584273063 0.003107541245571806068359599 1.025045097919914383055584
1.371138122402992376436259 -0.001508672702871464987861572 1.027353204894136062819143
1.936456014341948250745418 0.01042130464943632345287128 1.027087971316102521512903
1.943228007170974436235156 0.03021065232471811107251014 1.033859964145128707002641
1.943228007170973992145946 -0.009368043025845467636214536 1.033859964145128707002641
1.929683777049488568877678 -0.03645601434194845058556211 1.020315978487077224201585
1.929683777049488790922283 0.03645601434194846446334992 1.020315978487077224201585
1.922911784220463049521754 -0.01666666666666665602702935 1.013543985658051482801056
1.916139546928003145609409 -0.02396577923435549983821602 1.006771992829025741400528
1.916139546928003145609409 0.009367554098977836501971339 1.006771992829025741400528
1.984076152558868599840025 0.0151810282155958268385243 1.03184769488226235623074
1.992038076279433855830803 0.03259051410779791047023224 1.039809618602828056310727
1.992038076279433855830803 -0.002228457676606258961587992 1.039809618602828056310727
1.979020721433178309212053 -0.02053216690081720655070008 1.028277902207642924281572
1.988915395270819175266297 -0.03407615255886874833235467 1.037429756819748360996414
1.970315978487077401837269 -0.03645601434194845058556211 1.033859964145128707002641
1.970315978487077401837269 0.03645601434194845752445602 1.033859964145128707002641
1.979020721433178309212053 0.02053216690081721002014703 1.028277902207642480192362
1.988915395270819175266297 0.03407615255886875527124857 1.037429756819748138951809
1.974181478721227733785781 -0.003122681008615118582183445 1.022695840270156697471293
1.972248728604152567811525 0.0007428192255354234847103401 1.021505909378616738791834
1.96354398565805121634753 0.01042130464943631651397737 1.027087971316102521512903
1.956771992829025919036212 0.03021065232471810760306319 1.033859964145128707002641
1.956771992829025474947002 -0.009368043025845471105661488 1.033859964145128707002641
2.026877096237247322108033 0.003051901371158270009908975 1.026174805133909906373901
2.028227474146992115322519 -0.0003511455516689460662829725 1.027876328595323629500058
2.022770469408982307868428 -0.01056286392435024437674862 1.036385234704491509205582
2.01596308676122859537827 -0.03028143196217517735258085 1.043192617352245665784949
2.01596308676122859537827 0.009155704113474688599083606 1.043192617352245665784949
2.026330113848645808616311 -0.004145866148362632730428601 1.025978968296976656660036
2.017821207739477706866182 -0.02046138726336035190689344 1.033745055180609329070762
2.012911185390070301082233 -0.03638523470449159941120243 1.042449798126710236445547
2.017821207739477706866182 0.02046138726336035190689344 1.033745055180609107026157
2.012911185390070301082233 0.03638523470449159247230853 1.042449798126710236445547
2.026330113848645364527101 0.004145866148362634465152077 1.025978968296976656660036
2.024979735938901015401825 -0.0007428192255354171963377397 1.024277444835563155578484
2.024432753550298613731684 0.0003511455516689476925862312 1.024081607998629905864618
2.015923847441130956070765 0.0151810282155958268385243 1.03184769488226235623074
2.007961923720565255990778 0.03259051410779791047023224 1.039809618602828056310727
2.007961923720565255990778 -0.002228457676606259395268861 1.039809618602828056310727
1.389914568921120308075956 -0.002128848437200418254600098 1.092043417358320445131881
1.381892158423078997842026 0.01529131961277439485935581 1.084086834716641023490524
1.389914568921120308075956 0.03271148766274920710594998 1.092043417358320667176486
1.384132164594454872386109 -0.03644087457890504005986188 1.070573039173359664033569
1.378529621815039352128451 -0.02052770929554652290516259 1.07928312319834707189159
1.387729052244212279987323 -0.03408683471664147868196437 1.089170227154466097374552
1.378529621815039130083846 0.02052770929554650902737478 1.07928312319834707189159
1.387729052244212057942718 0.03408683471664147868196437 1.089170227154466319419157
1.384132164594454872386109 0.03644087457890503312096797 1.070573039173359664033569
1.383897813552737332543074 -0.009322623736715354020310187 1.056779562710547182291521
1.37711825084218997261587 0.01045158417552300572639368 1.063559125421094542218725
1.383897813552737332543074 0.0302257920877613758814384 1.056779562710547182291521
1.371515708062774452358212 0.0007535013833081334513191996 1.072269209446082172121351
1.372692727993906069983154 -0.003107541245571708056483207 1.074199730760521998007562
2.036385234704491509205582 0.01056286392435011774193487 1.077229530591016448681785
2.043192617352245665784949 0.03028143196217505245249058 1.084036913238770827305757
2.043192617352245665784949 -0.009155704113474810029726925 1.084036913238770605261152
2.029577852056736908537005 -0.03638523470449159247230853 1.070422147943262292102418
2.029577852056736908537005 0.03638523470449159247230853 1.070422147943262292102418
2.022770469408982751957637 -0.01666666666666666990481716 1.06361476529550813552305
2.01596308676122859537827 -0.02417762921985864080220985 1.056807382647753978943683
2.01596308676122859537827 0.009155704113474688599083606 1.056807382647753978943683
2.083960760585848781545337 0.01621852198863259209016263 1.082481833741800958392787
2.091980380292924213136985 0.03351261590781436094932388 1.090904808362374911467896
2.091980380292924213136985 -0.001075571930549178070041227 1.090904808362374911467896
2.08091386040100623233684 -0.02034599529033991743842691 1.080286433148490710109968
2.090773144419918239123035 -0.0339607605858484248861906 1.089921644828386160241962
2.072266813441415056473716 -0.03638523470449148145000606 1.08588157873692336963245
2.072266813441415056473716 0.03638523470449149532779387 1.08588157873692336963245
2.08091386040100623233684 0.02034599529033993131621472 1.080286433148490710109968
2.090773144419918683212245 0.03396076058584844570287231 1.089921644828385938197357
2.074101476566935886580723 -0.003051901371158145977180443 1.072846622061905730305398
2.072261812255099755475385 0.0006274272525151069774401735 1.071634385002584233248513
2.06361476529550857961226 0.01056286392435012468082878 1.07722953059101667072639
2.056807382647753978943683 0.03028143196217494836908202 1.084036913238771049350362
2.056807382647754423032893 -0.00915570411347469553797751 1.084036913238770827305757
2.102260709305133090651907 -0.04625426688939826558311097 1.098514976194531422848399
2.103357890360769033577526 -0.0158909811670014181061994 1.097029952389063200968167
2.102260709305133090651907 0.01447230455539541896237132 1.098514976194531422848399
2.101872866555300589652688 -0.04702995238906350350394092 1.098290903855514422104989
2.101872866555300589652688 0.04702995238906351738172873 1.098290903855514422104989
2.10148502380546808865347 0.0465818077110294326281803 1.098066831516497199316973
2.102970047610936532578307 0.01621852198863258515126873 1.096805880050046200224756
2.10148502380546808865347 -0.01414476373376425712147242 1.098066831516497421361578
1.392038030911701085301502 0.002827202279456271505342357 1.1107891713677553457984
1.384076061823401815331636 -0.0166666666666666664353702 1.118451632051428834557782
1.392038030911701085301502 -0.030506131053877064834845 1.1107891713677553457984
1.375649569729002985596367 -0.0001863175221306223735499158 1.125835887251133593522923
1.375185046722903425830964 0.0007427284900683816084090982 1.125557681767164863728681
1.382773583460796595900888 -0.01789627633798431677325524 1.116794590321076086070207
1.391350357384754765632806 -0.03407606182340171263600581 1.109746934473061275028272
1.375034764893344085834315 -0.001415927193448270407505341 1.125221082415474693760871
1.375034764893344085834315 0.001415927193448273226430989 1.125221082415474693760871
1.382773583460796595900888 0.01789627633798431677325524 1.116794590321076086070207
1.391350357384754765632806 0.03407606182340171957489972 1.109746934473061275028272
1.390047879022149768246663 -0.001862228235141540847591424 1.108089892742708526540696
1.382158778625138140228046 0.01529131961277439832880276 1.116179785485417186308155
1.390047879022149768246663 0.0324448674606903353367926 1.108089892742708526540696
1.374419960057685630161473 0.0001863175221306253008957815 1.124606277579816016043424
1.374570241887244748113517 -0.0004868811812492663442311636 1.124942876931505963966629
1.439116972748071043852747 -0.003119486375190956735370396 1.142236459123262104498053
1.431203797689142520610517 0.01468676520466648260931919 1.134472918246524075769344
1.439116972748071265897352 0.03249301678452391761720008 1.142236459123262104498053
1.423440256812404713926412 -0.03447291824652410491269805 1.126612029351289345768805
1.423440256812404491881807 0.03447291824652411185159195 1.126612029351289345768805
1.407763540876738161955473 0.003224058702578665950438941 1.110987599579316587039557
1.415527081753475968639577 -0.01458219287727877469529325 1.118848488474551317040095
1.407763540876738161955473 -0.0323884444571362131726211 1.110987599579316587039557
2.134400207447091801782335 0.01454799596198015285142269 1.131207123867231434388714
2.142200103723546078526851 0.03228153674240546999740786 1.139014558905100837904456
2.142200103723546078526851 -0.003185544818445158223030322 1.139014558905100837904456
2.125921279806711527982088 -0.03440020744709197664246147 1.123407227590777379688802
2.125921279806711527982088 0.03440020744709199052024928 1.123407227590777379688802
2.118121383530257695326782 -0.01666666666666666990481716 1.11559979255290797617306
2.109642455889877865615745 -0.03149077371990944423929548 1.107799896276453921473149
2.109642455889877865615745 0.001842559613423895570338829 1.107799896276453921473149
2.175895107352207702433589 0.001185394488752977096984731 1.125290287136544886692491
2.176336599542668448492577 -0.00030241010783142973890672 1.126034189434837351484475
2.169063114596442964909784 -0.01424455978461979833993301 1.134518727822086292533754
2.161348137459756291178792 -0.03209662094003943449971317 1.142259363911043212880259
2.161348137459756291178792 0.003607501370799849962911487 1.142259363911043212880259
2.175225564655088206222899 -0.002524479882992616136538899 1.124923154547256665125587
2.166741026267838599039806 -0.01888873644182785180301032 1.132348357582162456935748
2.160137084018733055756911 -0.03451872782208630779932079 1.141200028558699841596535
2.166741026267838599039806 0.01888873644182785527245727 1.132348357582162234891143
2.160137084018733055756911 0.0345187278220863147382147 1.141200028558699841596535
2.175225564655087762133689 0.002524479882992615269177161 1.124923154547256665125587
2.174784072464627016074701 -0.001036675286408208921176688 1.124179252248964422378208
2.174114529767507519864012 0.0003024101078314291425955251 1.1238121196596759787667
2.165629991380257912680918 0.01454799596198015285142269 1.13123732269458177057686
2.157814995690128689886933 0.03225133791505502972585262 1.139029658318776005998529
2.157814995690128689886933 -0.003155345991094720987241162 1.139029658318775783953924
1.441870572265919081544894 0.001960876289048216203347863 1.160090304023128959798328
1.433741144531838429543313 -0.01666666666666667337426411 1.16785101041044336867003
1.441870572265919081544894 -0.03137245704428511666739254 1.160090304023128959798328
1.425342136124684078168912 -0.000131350147641991129307884 1.175473486272325951418338
1.42507255545161037879609 0.0004078111985050370089274374 1.175335255746894347339548
1.432285673827782490619143 -0.0175977066127784437243875 1.166608957892115938648203
1.440880621534918804016456 -0.03374114453183838652217119 1.159313771477857635261444
1.424876616151627972683968 -0.001062390093753759826022964 1.175007966299270067978
1.424876616151627972683968 0.001062390093753727733638659 1.175007966299270067978
1.432285673827782490619143 0.01759770661277842984659969 1.166608957892115716603598
1.440880621534918804016456 0.03374114453183838652217119 1.159313771477857413216839
1.439425150830862865092286 -0.00250313020960690572891405 1.158071718959529983195011
1.4318201538547263851342 0.01468676520466647046625486 1.16614343791905983316326
1.439425150830863309181495 0.0318766606189398588044881 1.158071718959529983195011
1.42441109617857208924363 0.0001313501476419589556084155 1.174542446326214184537662
1.424607035478554495355752 -0.000523228747606731877523023 1.17486973577383846389921
1.4975861695906715898019 0.03551701754403026323192449 1.187930847953358792778999
1.4951723391813431796038 -0.01666666666666667684371106 1.190344678362686980932494
1.4975861695906715898019 0.002183684210696927759098873 1.187930847953358792778999
1.486391130282991968059036 -0.0008957511300359381496011268 1.187286881413028183374081
1.480023751793968722623163 0.01183900584801007849211629 1.181815254054041197662173
1.492227093280317662404855 -0.04517233918134342524064451 1.187399432461661241688944