# geometry NO_DATA 892
#  x  y  z
2.6444235526200623453974 0.01644594517595825491906858 1.222022392555896175281305
2.638847105240124335523433 -0.01666666666666666990481716 1.227646525208041072829701
2.6444235526200623453974 -0.01688738815737507795167183 1.222022392555896175281305
2.627445309511097448762484 -0.006136924791386642180635036 1.238847105240123980252065
2.621619961162008571875504 -0.02831736336484397265067514 1.244423552620061990126032
2.621619961162008571875504 0.01604351378207068135051117 1.244423552620061990126032
2.633293532905861766835187 -0.0388471052401239830276225 1.222092952873778948230665
2.621891737176835324163449 -0.03884710524012399690541031 1.233293532905861855653029
2.621891737176834880074239 0.03884710524012399690541031 1.233293532905861855653029
2.633293532905861766835187 0.0388471052401239899665164 1.222092952873778948230665
2.692520349234901466672909 0.005081138368817959480305824 1.212560789133917182880396
2.685040698469802755710134 -0.01666666666666667337426411 1.220060918419310080906826
2.692520349234901466672909 -0.02825219496451536818626415 1.212560789133917182880396
2.674078341965185678930084 -0.005258046342566887777769669 1.229336388307752159221309
2.670595636225668645380438 0.001707365136468391025870162 1.231111728910801339509362
2.677650730425620739794113 -0.03504069846980173430495142 1.212670950375128509080014
2.664891326063618226527296 -0.0236320781457019443716483 1.22561545904076840685093
2.660984063758954132339341 -0.03504069846980173430495142 1.21645015039353743269146
2.666688373921003663014062 0.02363207814570193743275439 1.221946420263570587394497
2.657501358019436210611275 0.03859137967590020590336053 1.218225490996586612979513
2.677650730425620739794113 0.03504069846980172736605752 1.212670950375128509080014
2.655704310162050330035299 0.01619021961173448126425356 1.221894529773784654480551
2.661408620324100304799231 -0.00573449339749906514263067 1.227390799643817587138983
2.655704310162050330035299 -0.0276592064067326115495149 1.221894529773784432435946
2.742291997816507009844145 0.004067904743656050592370832 1.211775906927148760416912
2.734583995633014019688289 -0.01666666666666666296592325 1.219325950188335561108488
2.742291997816507009844145 -0.02926542858967727533947567 1.211775906927148760416912
2.725564689514860194918811 -0.001371945569641913349051565 1.226936635084502569270626
2.724253385580198916215977 0.001250662299681368954187843 1.226997276719482776741188
2.727165897303301278498111 -0.03458399563301469553655565 1.211907851858621709695285
2.716606025031686133530684 -0.01928927453598994548600309 1.219664857217503284303461
2.710499230636634226954129 -0.03458399563301470247544955 1.212186117252809225419696
2.718146591185146565550212 0.01928927453598994895545005 1.219518536754788939902028
2.709187926701972948251296 0.03470527890297524925555805 1.212246758887789432890258
2.727165897303301278498111 0.03458399563301469553655565 1.21190785185862193173989
2.707647360548512516231767 0.00474571880199148050244462 1.212393079350503999336297
2.715294721097024854827851 -0.01329289343431709971565802 1.219725498852483491774024
2.707647360548512516231767 -0.03133150567062567559695196 1.212393079350503999336297
2.792826019881716081982859 0.00829732075267662974593641 1.215471300870961002260628
2.785652039763431453422982 -0.01666666666666666990481716 1.221974680258054224424313
2.792826019881716081982859 -0.02503601258065671353314485 1.215471300870961002260628
2.776805131176757868161076 -0.001027150506681239828035701 1.227832281683438608865799
2.775132202708368467369837 0.002318706430097869884698891 1.227186503721730437277415
2.779244573492512415668898 -0.03565203976343120362280104 1.21556721398713474258102
2.767312444628375445176971 -0.0200125236034457698597322 1.21974821635704366862285
2.762577906825845364124916 -0.03565203976343118974501323 1.213986528047832802457151
2.770397664905838386317782 0.0200125236034457767986261 1.221424815412519349067111
2.760904978357455963333678 0.03436048384001456901248872 1.213340750086124408824162
2.779244573492512415668898 0.03565203976343120362280104 1.21556721398713474258102
2.757819758079993022192866 0.003844392950655926236708249 1.211664151030648728379902
2.765639516159986044385732 -0.01384942422269197677409114 1.219102438395335497034466
2.757819758079993022192866 -0.03154324139603988108593313 1.211664151030648728379902
2.839748918030198687745269 -0.00311922704095190118228631 1.242868145071150731695298
2.830572241408372935467241 0.01595039643468351697741525 1.2357362901423016854352
2.839748918030198687745269 0.03502001991031893773920203 1.242868145071150731695298
2.823440386479524111251749 -0.03573629014230209066660393 1.22919078556577354710555
2.823440386479524111251749 0.03573629014230209066660393 1.22919078556577354710555
2.807131854928849534758228 0.008381571131547518524462781 1.215513426060396362515803
2.814263709857698358973721 -0.01068805234408790744149442 1.222058930636924500845453
2.807131854928849534758228 -0.0297576758197233351421751 1.215513426060396362515803
2.592722843084655170997621 0.006078238397963073649798993 1.263355395313307649729495
2.58544568616931069726661 -0.01666666666666666990481716 1.270761962283636581361179
2.592722843084655170997621 -0.02725509493537026442511184 1.263355395313307649729495
2.570401484401803937629438 -0.01342173686834656140542954 1.285445686169310430813084
2.562634439549642095812487 -0.03220075637099041598876425 1.292722843084655348633305
2.562634439549642095812487 0.005357282634297300116799079 1.292722843084655348633305
2.578174648664127488473241 -0.03544568616931052795759882 1.263490924778454038701625
2.563130446896620728836069 -0.03544568616931052101870492 1.27817464866412788815353
2.563130446896621172925279 0.03544568616931052795759882 1.27817464866412788815353
2.578174648664127488473241 0.03544568616931052795759882 1.263490924778454038701625
2.629589179096805118263092 0.0003909933802579790913973856 1.27080181428345317939943
2.627587834583596126947214 -0.004393682406675961452102719 1.273194152176920335151067
2.624601200511590626263114 -0.001579585737335598497055322 1.276180786248926057879771
2.623615910952793672805683 0.0003909933802579756219504337 1.276775082427464846901444
2.619559917654712410950424 -0.021451342453600589360585 1.265166235248036175065067
2.616295958568890078765889 -0.03772701574000932034369526 1.256637405224573900142104
2.616072370488128129295546 -0.01863724578426022987498456 1.269634899006456540959675
2.609029743118041366756188 -0.03372432671359128220078816 1.261012685899033813896608
2.616573283582706466177115 0.01863724578426025763056018 1.268152869320041897793772
2.608044453559243969209547 0.03491291907066896432754177 1.261606982077572602918281
2.624323875497774238851889 0.02145134245360062058560757 1.264665322153457838183499
2.614294614055681087450012 0.03372432671359129607857597 1.259029743118040833849136
2.626325220010983230167767 -0.01666666666666665602702935 1.262272984259990682431862
2.621059916411951462578145 -0.01840990905137732114305038 1.256136492129995341215931
2.621059916411951462578145 0.01492342428195602040130741 1.256136492129995341215931
2.607543540464665188238769 0.005545471299321505682933253 1.263089011763987024039579
2.615087080929330731748905 -0.01270078110468077572936529 1.270229195184995329981348
2.607543540464665632327979 -0.03094703350868307015208991 1.263089011763987024039579
2.849364059043322683351107 -0.01627814923836558638758909 1.250830199670827092006675
2.84968202952166116403987 0.0164192431382909447001861 1.250706487906639186036273
2.84968202952166116403987 -0.04897554161502211400591733 1.250706487906639186036273
2.849323894405669577167828 -0.04936405904332319405369844 1.250512229192488611317913
2.849323894405669577167828 0.04936405904332319405369844 1.250512229192488611317913
2.849005923927331096479065 -0.01666666666666666296592325 1.250635940956676517288315
2.848965759289677990295786 0.01531445547800671866389699 1.250317970478338036599553
2.848965759289677990295786 0.04864778881134004806519044 1.250317970478338036599553
2.889301366975576712547991 -0.003296883295781924579082034 1.292598250271358883978223
2.880753308080749697239753 0.01523295058026910737958293 1.285196500542717723547526
2.889301366975576712547991 0.03376278445632015234867396 1.292598250271359106022828
2.873351558352108980898265 -0.03519650054271770966973776 1.276125842318842851241811
2.873351558352108980898265 0.03519650054271769579194995 1.276125842318842851241811
2.85740174972864124924854 0.002251684637685442968990657 1.25965343436632637441619
2.864803499457281965590028 -0.01627814923836559679592995 1.268724092590201468766509
2.85740174972864124924854 -0.03480798311441662268306274 1.25965343436632637441619
2.49406843176141190809858 0.01438158400668069006322902 1.320313152245268684126245
2.48813686352282426028637 -0.01666666666666666990481716 1.326259223764752803731426
2.49406843176141190809858 -0.01895174932665264627695834 1.320313152245268684126245
2.47594278097557118911709 -0.007721498427838883495122335 1.338136863522824793193422
2.46968026666690665393844 -0.02919169528399670823781697 1.344068431761412441005632
2.46968026666690620984923 0.01374869842831894298229578 1.344068431761412663050237
2.482208977220608403513324 -0.03813686352282449204542658 1.32033133746253650286917
2.470014894673355332344045 -0.03813686352282449204542658 1.332208977220608492331166
2.470014894673355332344045 0.03813686352282449898432048 1.332208977220608492331166
2.482208977220608403513324 0.03813686352282449898432048 1.32033133746253650286917
2.542085520952236610270347 0.002119615703469269422237753 1.310034094751232336406588
2.534171041904473842265588 -0.01666666666666666296592325 1.318145328803971949582774
2.542085520952236610270347 -0.031213717629864065616907 1.310034094751232336406588
2.52346993367189131873829 -0.004735549798498162911430942 1.328205483470390024791641
2.52068330448707200730496 0.0008377085711408291260685055 1.330154404084068708868926
2.526269159850159873315079 -0.03417104190447416145470783 1.310243446749658424721474
2.514717746052987479288277 -0.02223992503630566053285378 1.324242322760081025379009
2.509602493183493265860307 -0.03417104190447416145470783 1.314391520092088594395818
2.51556805161757779387699 0.02223992503630566400230073 1.320303601416076499930341
2.506815863998673954426977 0.03806888313183150185370351 1.316340440705767722562314
2.526269159850160317404288 0.03417104190447416839360173 1.310243446749658424721474
2.505965558434083639838263 0.01431360361568769813678248 1.320279162049772025966377
2.511931116868168167854947 -0.00708861284947713381210388 1.326191243373759709456294
2.505965558434083639838263 -0.02849082931464196749571371 1.320279162049772025966377
2.560049565196433452030078 -0.03367123660228148185336039 1.308427100297274048301688
2.558427100297273160123268 -0.03367123660228148185336039 1.309068053863438274575515
2.558427100297273160123268 0.0336712366022814957311482 1.309068053863438274575515
2.560049565196433452030078 0.0336712366022814957311482 1.308427100297274048301688
2.561409311497179430716642 -0.03042630680396138376231363 1.308164381698859290992232
2.567951228296878163348538 -0.01342173686834655967070606 1.316328763397718537575543
2.561409311497178542538222 0.003582833067268266589305847 1.308164381698859290992232
2.566328763397717871441728 -0.01538475953433822776550421 1.316969716963882763849369
2.558164381698858846903022 0.001619810401276599145029 1.30944628883118796558449
2.558164381698858846903022 -0.0323893294699530501223883 1.309446288831187743539886
2.897256153578426030037463 -0.01572750247035849605059532 1.303213428519728100951625
2.898628076789212748565205 0.01486198444140107363664605 1.302311087407095335777285
2.898628076789212748565205 -0.04631698938211806226838974 1.302311087407095335777285
2.897911218746013872760159 -0.04725615357842623265316462 1.301841505308941160379277
2.897911218746014316849369 0.04725615357842623265316462 1.301841505308940938334672
2.896539295535227154232416 -0.01666666666666667684371106 1.302743846421573925553616
2.897194360702815885133532 0.01248910415869534593080736 1.301371923210786984981269
2.897194360702815885133532 0.04582243749202868920988863 1.301371923210786762936664
2.947429604786370394009509 0.03506257517420190150669868 1.337632970387830910752314
2.944859209572741498561754 -0.01666666666666666990481716 1.339960892373472045591143
2.947429604786370838098719 0.001729241840868567334915662 1.337632970387830910752314
2.935860169820174281340996 -0.001331412838468000459091201 1.337191582658642907688318
2.929431525281235515478784 0.01152587623940874196615258 1.332094350958172412902059
2.937898613038647077644328 -0.04485920957274208697995732 1.333000295839377402629111
2.921763898367136569333979 -0.02952395574454342100367832 1.323564893303759371079309
2.921231946371980470189555 -0.04485920957274208697995732 1.321701528470134778814327
2.92889957328607986042357 0.02952395574454340712589051 1.330230986124548042681681
2.914803301833041704327343 0.0346647461718013194520438 1.316604296769664284028067
2.937898613038647077644328 0.04485920957274208697995732 1.333000295839377402629111
2.907667626914099301416172 0.002270577034776168241780869 1.309938203948875612425695
2.915335253828198691650186 -0.01572750247035849605059532 1.31846766160328887629305
2.907667626914098413237753 -0.03372558197549315600616282 1.309938203948875612425695
2.962579862897738003368886 -0.03500828701814481802578882 1.347588149915883493079605
2.959907706575043651042733 -0.006498653853045030515112046 1.345176299831766897341367
2.962579862897738003368886 0.02201097931205474658722387 1.347588149915883493079605
2.957495856490926833259891 -0.04517629983176644353770612 1.342689832716613240748416
2.957495856490927721438311 0.04517629983176646435438784 1.342689832716613462793021
2.952411850084116551329316 0.03537966543322627194223529 1.337791515517343210461831
2.954823700168233813201368 0.006870032268126496574622841 1.340277982632496645010178
2.952411850084116995418526 -0.02163960089697328920133046 1.337791515517343210461831
2.3976037555049392047124 0.03560424740346945782221155 1.388000491898530031065206
2.395207511009878054153432 -0.01666666666666666296592325 1.390405879206674022441348
2.3976037555049392047124 0.002270914070136123650428539 1.388000491898530031065206
2.390332165072011072481928 0.00691597479093246456788302 1.395207511009878276198037
2.387853063629204797280181 -0.02162486955227942153623388 1.3976037555049392047124
2.387853063629205241369391 0.03545681913414434893727645 1.3976037555049392047124
2.3928138666458025340944 -0.04520751100987855514157232 1.388012234842598058293106
2.387938520707935552422896 -0.04520751100987855514157232 1.392813866645802756139005
2.387938520707935552422896 0.04520751100987855514157232 1.3928138666458025340944
2.3928138666458025340944 0.04520751100987855514157232 1.388012234842598058293106
2.442258006153481986189036 0.003364584852673939592559993 1.361106578699192271031393
2.434516012306963794742387 -0.0166666666666666664353702 1.368940298579818914959105
2.442258006153481986189036 -0.0299687484806593976149891 1.361106578699192048986788
2.420267332444517194289801 -0.01183069305822614242229562 1.382098025502743521286675
2.413760646428588785283864 0.001182678973630559796786921 1.387422032545041483686532
2.426785081217464501435188 -0.03451601230696388356022908 1.361209367490319621651906
2.411342659624368778281678 -0.0296800386985233595471545 1.385038387546057236932029
2.410118414550797893980416 -0.03451601230696388356022908 1.371983449414259981224973
2.412536401355017900982602 0.02968003869852336301660145 1.374367094413244227979476
2.403611728534869484974479 0.04516402639155948223192993 1.37730745645655794362483
2.426785081217464501435188 0.03451601230696388356022908 1.361209367490319621651906
2.402417986804220362273554 0.03556076278515038491256917 1.387978749589370730532778
2.404835973608440369275741 0.007063403060257577789626815 1.390362394588354977287281
2.402417986804220362273554 -0.02143395666463523974165639 1.387978749589370730532778
2.478546044252246005612506 0.0002813055713859590324481263 1.371735261319140031233133
2.47698400130466245272487 -0.003405391466552999159278503 1.373578609838109532148565
2.474891760179344313286265 -0.0007790907840828685884670968 1.375670850963427449542564
2.474361562001609726735296 0.0002813055713859597371795385 1.375919743569775643976527
2.468908927599307467914969 -0.0203533637046056301023178 1.365503536132754769383268
2.464907525599695503615294 -0.03673872479988633116265717 1.357029550013728602664287
2.466417774060317924522678 -0.0177270630221354995315064 1.368287817783922832859389
2.458872898532697970352956 -0.03361463890471930171521819 1.359963851472219653615525
2.466816686473989772565574 0.01772706302213549606205945 1.367595777258072908821873
2.458342700354963383801987 0.03411242411741620406129272 1.360212744078568292138698
2.472982599305050044335985 0.0203533637046056231634239 1.365104623719083365429583
2.463345482652111506638448 0.03361463890471930171521819 1.358872898532698103579719
2.474544642252633597223621 -0.01666666666666666990481716 1.363261275200113864514151
2.468981197305437635947101 -0.02098277362795255424066099 1.356630637600057198710601
2.468981197305437635947101 0.01235055970538078209952637 1.356630637600057198710601
2.457943787941291979848302 0.002960996663126250986325383 1.360904784604418438220819
2.465887575882583782060919 -0.01448476078762328533855452 1.368536710390271249337957
2.457943787941291979848302 -0.03193051823837281255613618 1.360904784604418438220819
2.993449414009323295005061 0.01224524387643674550041339 1.368795829867113456046468
2.986898828018646590010121 -0.01666666666666669072149887 1.374572035947541737144206
2.993449414009323295005061 -0.02108808945689659777866787 1.368795829867113456046468
2.978246794427271915139954 -0.0006374005160833539924275515 1.378884194943355234741489
2.976145346826573501175517 0.003565494685313417774774614 1.377420147858740229196428
2.96821820456761154005676 -0.03086259304902411182425226 1.363134198160801391352948
2.981866753749466969480864 -0.03689882801864679401360192 1.364455955271551612639769
2.97114883123609274662158 -0.01483332689844078094987267 1.371786231752176288267719
2.97114883123609274662158 0.0148333268984407358470623 1.371786231752176732356929
2.968218204567611984145969 0.0308625930490240875381236 1.363134198160801613397553
2.981866753749467413570073 0.03689882801864678013581411 1.364455955271552056728979
2.963186130298432363616712 -0.0337957522167556950742906 1.35301811748481126684851
2.961120241376433259716805 -0.00649865385304504612762333 1.356036234969622888968388
2.963186130298432363616712 0.02079844451066560628849089 1.35301811748481171093772
2.964050868044914466281625 0.0006374005160833088896171761 1.36468826856099778588316
2.969047383635394332657143 -0.01063043169704400853214921 1.370322184667561282722659
3.032383553098537021242009 -0.01156420046599419305943801 1.393947753564531710779306
3.025270146202471366336795 0.00966463999640224113996112 1.387895507129063066287245
3.032383553098537021242009 0.03089348045879871176855325 1.393947753564531488734701
3.019217899767002499800128 -0.03789550712906314400285623 1.381620961493426502642023
3.019217899767002499800128 0.03789550712906310236949281 1.381620961493426502642023
3.006052246435468422447457 0.01324192298685307120353905 1.369294169422321516549346
3.012104492870936844894914 -0.007986917475543401159776558 1.375568715057958080194567
3.006052246435468422447457 -0.02921575793793983882862264 1.369294169422321516549346
2.343110882249009652156246 0.008563064193003528529191115 1.415452181943993581469954
2.336221764498019659583861 -0.01666666666666666296592325 1.422392414345511557627333
2.343110882249009652156246 -0.02477026914032980781099624 1.415452181943993581469954
2.32218865838297405801427 -0.01139954556342409955349559 1.436221764498019526357098
2.315044670018918893106274 -0.03095464339477699625136076 1.443110882249009963018693
2.315044670018918893106274 0.008155552267928797144369568 1.443110882249009963018693
2.329338524910180119320557 -0.03622176449801955966378841 1.415509174757671795319425
2.315305418795134517750967 -0.03622176449801955966378841 1.429338524910179986093794
2.315305418795134517750967 0.03622176449801955966378841 1.429338524910179986093794
2.329338524910179675231348 0.03622176449801956660268232 1.415509174757671795319425
2.386815939033365197019521 0.0005698596815920311132314113 1.41375392064822635873611
2.381335364277876287530944 -0.01153100919256964430881229 1.419804355085307001616002
2.374236579037185990159742 -0.002666561288810454302677933 1.426903140325997298987204
2.372618368551985046366326 0.0005698596815920230901353349 1.427951491129606509389305
2.373329323508281962773481 -0.02876753554082833036487088 1.411798314315713120947748
2.3765023810629521960891 -0.04486434252590297544482922 1.4031800511415837284801
2.365618315863057041781303 -0.01990308763706914035873652 1.421122193666026323199958
2.359230485578664104906466 -0.03390319301492535075670531 1.412067802092823010084999
2.366230538267592109491488 0.01990308763706914729763042 1.418897099556402752185136
2.35761227509346271702384 0.03599989462214379931648267 1.4131161528964322204871
2.384508421832546964935773 0.02876753554082834424265869 1.411186091911178053237563
2.371021806307463730689733 0.03390319301492536463449312 1.409230485578664371359991
2.38998899658803543033514 -0.0166666666666666594964763 1.405135657474097188313067
2.387681479387216754162182 0.0017803173168354467781338 1.402567828737048660769915
2.387681479387216754162182 0.03511365065016878311832116 1.402567828737048660769915
2.357000052688928093402865 0.008341194317127754304097564 1.415341247006055791501922
2.364000105377855653898678 -0.010992033638349371638121 1.422170544469635977691269
2.357000052688928093402865 -0.03032526159382649411089261 1.415341247006055791501922
3.036250017274774837261475 -0.01363665941246457527502578 1.415264986352325671248309
3.043125008637387551857501 0.005946691195644164540379251 1.409904998616814175704803
3.043125008637387551857501 -0.033220010020573301212643 1.409904998616814175704803
3.03962399530225457766619 -0.03625001727477540625077523 1.408389994989713400741493
3.03962399530225457766619 0.03625001727477539237298743 1.408389994989712956652284
3.032749003939642751248584 -0.01666666666666667684371106 1.413749982725224452195789
3.036122981967122491653299 -0.004085342728822325027160378 1.406874991362612181688974
3.036122981967122491653299 0.02924799060451100524149481 1.406874991362611959644369
3.090292613388166742538488 -0.002375874688553494210735417 1.442668488076719768287148
3.081143574579003896474205 0.0162944347982193621371394 1.435336976153439580983218
3.090292613388166742538488 0.03496474428499222325550377 1.442668488076719768287148
3.07381206265572304303646 -0.03533697615343951714539372 1.427516825037153935795686
3.07381206265572304303646 0.03533697615343951714539372 1.427516825037154157840291
3.057331511923280231712852 0.005033650074308289312785547 1.412365161997588325348829
3.064663023846560641061387 -0.01363665941246456486668492 1.420185313113873748491756
3.057331511923280231712852 -0.03230696889923741210726149 1.412365161997588325348829
2.292698398077743338063783 0.005834039484345837807410806 1.463135641406602349690047
2.28539679615548729785246 -0.01666666666666668031315801 1.470615417819916226349619
2.292698398077743338063783 -0.02749929384898749940013829 1.463135641406602349690047
2.270502884185500391822643 -0.01312115727330692878382923 1.485396796155486587309724
2.262910574137769970093359 -0.03185128676212721499094727 1.492698398077743293654862
2.262910574137769970093359 0.005608972215513365229544451 1.492698398077743293654862
2.278109520026475376397457 -0.03539679615548696478555257 1.463328141690904526939221
2.26321560805648847036764 -0.03539679615548696478555257 1.478109520026475331988536
2.26321560805648847036764 0.03539679615548695090776476 1.478109520026475331988536
2.278109520026475376397457 0.03539679615548695090776476 1.463328141690904971028431
2.326962688600250572790173 0.0002774806103407482984340993 1.473314792010090190643723
2.326189454757880525903602 -0.001823948295080404487580883 1.474365506462800734510665
2.324635154409810056108654 -0.001284652401060627693180072 1.475919806810871204305613
2.323854087904109633200278 0.000277480610340749491056489 1.476423392706231130233618
2.318137457164113346408385 -0.01876809557208782008874692 1.466313508869033777060054
2.312298944077231244165205 -0.03515728162841374321301302 1.457841435230529558708668
2.316163080771306503891083 -0.01822879967806804307750568 1.469333021503463676538104
2.308892149683240191393452 -0.03361081394367408659018537 1.460777438014336571114882
2.316583156816042876613437 0.01822879967806805001639958 1.467867809217104246855001
2.308111083177539768485076 0.03461798573439396620177178 1.461281023909696497042887
2.320350941670998423660421 0.01876809557208782008874692 1.465893432824297182293094
2.311525710234861641367843 0.03361081394367408659018537 1.45889214968324054666482
2.321124175513368470546993 -0.01666666666666666990481716 1.464842718371586416381547
2.314512428584116321417241 -0.02624226393501036258548709 1.457421359185793408030918
2.314512428584116321417241 0.007091069398322973754700271 1.457421359185793408030918
2.307691007132802507584302 0.005055229063252848764609126 1.462746236196056148770595
2.315382014265605636893497 -0.01289609000447444926706897 1.469836607398823824510714
2.307691007132802951673511 -0.03084740907220174382930011 1.462746236196056148770595
3.099476454612817732936492 -0.01649705561895333655320073 1.450608350911038790798102
3.099738227306409132921772 0.01631273232719799778922543 1.4504313837413040921831
3.099738227306409132921772 -0.04930684356510467436507383 1.4504313837413040921831
3.099552111372185336790608 -0.04947645461281800077779636 1.450346578217447390812822
3.099552111372185336790608 0.04947645461281800077779636 1.450346578217447390812822
3.099290338678594380894538 -0.01666666666666667337426411 1.450523545387181645338615
3.099365995437961984748654 0.01577088941103736013937819 1.450261772693591133531754
3.099365995437961984748654 0.0491042227443706930101186 1.450261772693591133531754
3.144068320723522269588557 0.01562472126705325217721487 1.471556400543530429558814
3.138136641447045072084165 -0.0166666666666666664353702 1.47688068135704941852282
3.144068320723522269588557 -0.01770861206628007722407858 1.471556400543530429558814
3.129394110019202202011002 -0.0008183961890197120891965454 1.480212506208222089654214
3.12658325786783564126381 0.004803308113712326070376957 1.478220050245875771821602
3.128044217005940375031514 -0.03813664144704566327792605 1.466788256915944277380959
3.118659122629012792060621 -0.02228837096939870546230544 1.469562324341889381074111
3.111377550339274211665952 -0.03813664144704566327792605 1.461462355863130557764862
3.11930168557809750495835 0.02228837096939870546230544 1.470120081767117170556958
3.10856669818790765091876 0.0341517295223530484293839 1.459469899900784017887645
3.128044217005940375031514 0.03813664144704566327792605 1.466788256915944277380959
3.10792413523882338211024 0.0009880072367330441397703655 1.458912142475556450449403
3.115848270477646231313429 -0.01649705561895333655320073 1.467569868379542841196894
3.10792413523882338211024 -0.03398211847463971507776748 1.458912142475556450449403
3.179535514420085640097113 -0.01492383439506580339317665 1.494459348815151189526773
3.173078733987315658282569 0.007328196568570144453502735 1.488918697630302379053546
3.179535514420085640097113 0.02958022753220608883073517 1.494459348815151189526773
3.167538082802466625764737 -0.03891869763030261081260264 1.483203388725155003058376
3.167538082802466625764737 0.03891869763030261081260264 1.483203388725155003058376
3.15554065118484849961078 0.01640677745031020318133841 1.471947428635158816589978
3.161081302369697088039402 -0.005845253513325737726447073 1.477662737540306192585149
3.15554065118484849961078 -0.02809728447696168210367951 1.471947428635158816589978
2.275923576844593565482455 0.0002726875137020859959750829 1.524349110669108497972957
2.275666304057573086083721 -0.0007872330877426314413650155 1.524879070969830774373577
2.267225134043074241674276 -0.01609510694125568242007773 1.53360602084703545600064
2.259041236815594988485145 -0.03303446112162443382143096 1.541803010423518083271688
2.259041236815594988485145 0.0008442472391130735349246139 1.541803010423517861227083
2.267836649121638625814512 -0.01772658726811138923951106 1.517049416033896314104368
2.261139726728134125011138 -0.03412056642107597070889824 1.508579738943711889831434
2.259395479107139337315857 -0.03360602084703542824506428 1.525776365911100995731431
2.259395479107139337315857 0.03360602084703542824506428 1.525776365911100995731431
2.268969381664069029369557 0.0177265872681113857700641 1.516409393879646572145248
2.260882453941114089701614 0.03360602084703542130617038 1.509109699244433944187449
2.269226654451089064679081 -0.0166666666666666664353702 1.515879433578924295744628
2.262272459270564084476973 -0.02900059085223095911576507 1.507939716789461925827709
2.262272459270564084476973 0.004332742481102377224422284 1.507939716789461925827709
3.191814406822581773326419 0.004015087906229739336816387 1.512200681083648579061673
3.183628813645162924927945 -0.01666666666666669072149887 1.518821950775696372204493
3.191814406822581773326419 -0.0293182454271035952686475 1.512200681083648579061673
3.17526081916927882531354 -6.932228510139783737332986e-05 1.525330141454380283860814
3.175078417870813130008401 0.0002954803118293302440638959 1.525217062441016402374316
3.178370483817833047623935 -0.01784485622323028417013369 1.516373052200214566198611
3.187145171773533736114814 -0.03362881364516271537334902 1.51034087728644839110359
3.174671724390996985221136 -0.001247511841664988765238098 1.524741046676098665813015
3.174671724390996985221136 0.001247511841664918075256452 1.52474104667609844376841