# geometry NO_DATA 664
#  x  y  z
2.699730419687399241013281 0.04844790472135085401816923 1.298717485033951568595967
2.699460839374798304390879 -0.0166666666666666594964763 1.298954372048074290546538
2.699730419687399241013281 0.01511457138801750900436449 1.298717485033951568595967
2.698413095987707954748203 0.01457117989248526285228635 1.299460839374797949119511
2.697634932913218097638719 -0.01822299281564620371254293 1.299730419687399107786518
2.697634932913218097638719 0.04736535260061672247822173 1.299730419687398885741914
2.699287884820562144483347 -0.04946083937479812259185863 1.298781417493838130639006
2.698240141433471794840671 -0.04946083937479812259185863 1.299287884820561789211979
2.698240141433471794840671 0.04946083937479812953075253 1.299287884820561789211979
2.699287884820562588572557 0.04946083937479812953075253 1.298781417493838130639006
2.749838092087142360497865 0.04925911870648370938230443 1.299421026619341112962047
2.749676184174284720995729 -0.0166666666666666594964763 1.299467651440384230454583
2.749838092087142360497865 0.01592578537315037304211707 1.299421026619341112962047
2.733406775199943794518731 -0.01587215128201652919459619 1.299278926481960194649901
2.717299274138460063454659 0.01634285084095189050090724 1.299043576702492375218867
2.749633869966801036355264 -0.04967618417428519561607203 1.299425337232900323769513
2.716902016446134826566094 -0.04888166878963507572253278 1.298934367068093953534458
2.732967203300134428900492 -0.04967618417428520949385984 1.299127402640077644235816
2.733364460992459221699846 0.04888166878963509653921449 1.299236612274476065920226
2.71685970223865069783642 0.04920548461534988288201831 1.298892052860609824804783
2.749633869966801036355264 0.04967618417428521643275374 1.299425337232900545814118
2.700397257692325414524248 0.0481925499619026004305411 1.298589807654227712419015
2.700794515384650651412812 0.0156537320132193978616808 1.298699017288626134103424
2.700397257692325414524248 -0.0168850859354638185849673 1.298589807654227712419015
2.750927847308413554117124 -0.04895392276908909490185096 1.299881770077502718407914
2.75064126853795309912698 -0.01585704928075003933285458 1.299763540155005836496116
2.750927847308413554117124 0.01723982420758902317503569 1.299881770077502718407914
2.750523038615455106992158 -0.04976354015500572547381353 1.299673237343602183457847
2.750523038615455551081368 0.04976354015500573935160133 1.299673237343602183457847
2.750118229922496659867193 0.04934647468720422536225811 1.29946470460970120441857
2.750236459844994207912805 0.01624960119886516632381479 1.299555007421104857456839
2.750118229922496659867193 -0.01684727228947389271462853 1.29946470460970120441857
2.645249786588746765403357 0.02118156233065269372639605 1.325931775741905793708497
2.640499573177493619624556 -0.01666666666666666296592325 1.330840567754073333617271
2.645249786588746765403357 -0.01215177100268063914434435 1.325931775741905793708497
2.625442038262568278383924 -0.01344840316318365348868813 1.34049957317749424134945
2.615134716758896082922092 -0.03728130967401092898949599 1.345249786588746943039041
2.615134716758896082922092 0.01038450334764362895101364 1.345249786588747165083646
2.638839556632370353383976 -0.0404995731774939471403485 1.329180551208949623287481
2.623782021717445012143344 -0.0404995731774939471403485 1.33883955663237053101966
2.623782021717445012143344 0.0404995731774939471403485 1.33883955663237053101966
2.638839556632370353383976 0.0404995731774939471403485 1.329180551208950067376691
2.673971051873480053728827 -0.04370629724787630787652404 1.308352128593903707098889
2.658352128593903351827521 -0.04370629724787630787652404 1.315359789837149628866086
2.658352128593903795916731 0.04370629724787630787652404 1.315359789837149628866086
2.673971051873479609639617 0.04370629724787630787652404 1.308352128593903707098889
2.684384697935214170172458 -0.01246845068872438899720834 1.303146851376061787775029
2.67191262603170009981568 0.01457117989248525070922202 1.306293702752123753185742
2.684384697935213726083248 0.04161081047369489388509933 1.303146851376062009819634
2.656293702752123842003584 -0.002651344180174589146986586 1.31330136399536967495294
2.653146851376062098637476 0.02438828640103505099312464 1.317162173862554075398634
2.653146851376061654548266 -0.02969097476138422841973608 1.317162173862553853354029
2.792565101514087544387621 -0.0003397693193586496249528062 1.315598347159566916531048
2.796282550757043683375969 0.02555866552806167896205736 1.320044346590264483509714
2.796282550757043683375969 -0.02623820416677899794444251 1.320044346590264483509714
2.780020692783335078956952 -0.04256510151408699621500276 1.311880897916610333453491
2.780020692783335523046162 0.04256510151408701703168447 1.311880897916610333453491
2.776303243540379384057815 -0.01666666666666664908813544 1.307434898485912988519431
2.763758834809626918627146 -0.02329194776666302507672768 1.303717449242956405441873
2.763758834809626918627146 0.01004138556667030605928925 1.303717449242956405441873
2.825191919862648948225115 -0.02094753013132733682200026 1.346139449993976278108221
2.818386784940359213180727 0.004664703189958785758961746 1.34227889998795291148781
2.825191919862648948225115 0.03027693651124490140102985 1.346139449993976500152826
2.814526234934336290649526 -0.04227889998795279075105569 1.337636232000963598665066
2.814526234934336290649526 0.04227889998795279075105569 1.337636232000964042754276
2.803860550006023633073937 0.02527246400192745962032248 1.329133014007951141266517
2.807721100012047887872768 -0.0003397693193586577564690998 1.333775681994940232044655
2.803860550006024077163147 -0.02595200264064478901104849 1.329133014007951141266517
2.5474672323478904090166 0.03349054004335028089656134 1.386023307695460005106725
2.544934464695780995668883 -0.0166666666666666664353702 1.389212502369565394033657
2.5474672323478904090166 0.0001572067100169480258209376 1.386023307695459561017515
2.535462810702688418729167 -0.002276641319518645737579599 1.39493446469578086244212
2.528523924361705255137167 -0.03054443934863310464167263 1.397467232347890275789837
2.528523924361705255137167 0.02599115670959581750332212 1.397467232347890275789837
2.543213092555303589392679 -0.04493446469578112056897368 1.387491130229087765712848
2.533741438562210568363753 -0.04493446469578112056897368 1.393213092555303234121311
2.533741438562210568363753 0.04493446469578113444676148 1.393213092555303234121311
2.543213092555303145303469 0.04493446469578113444676148 1.387491130229087987757453
2.597118654441731067095134 -0.01442957775325574495961511 1.353999890014974560870087
2.598559327220865355911883 0.01602241002180890966366533 1.353677761692545278293665
2.598559327220865800001093 -0.04488156552832039958289556 1.353677761692545722382874
2.57830913314995635587934 -0.03555607447696836065365034 1.364523812041558592511592
2.589194509834241486601059 -0.04711865444173132799754455 1.359861066515882566108075
2.563083139262423593152107 -0.03843742003523704237055725 1.374027843602874998651941
2.563083139262423593152107 0.03843742003523704237055725 1.374027843602875442741151
2.57830913314995635587934 0.03555607447696835371475643 1.364523812041558592511592
2.589194509834241486601059 0.04711865444173131411975675 1.359861066515882566108075
2.586233277757445936373415 -0.005104086701903718173434221 1.358662635540650365228998
2.576788573852295094468445 0.01378532110839797604484591 1.363003252743897331100698
2.561562579964762775830422 0.005222742014235820691425705 1.372507284305214181330257
2.555781289982380855008159 0.02699349538280619922869796 1.377670698663284065688117
2.555781289982381299097369 -0.01654801135433455264167613 1.377670698663283843643512
2.603024298319875917684385 -0.04900065963225336274078359 1.351415166568134651470245
2.601415166568134651470245 -0.04900065963225336967967749 1.352533711024840101799782
2.601415166568133763291826 0.04900065963225336274078359 1.352533711024839657710572
2.603024298319875473595175 0.04900065963225336274078359 1.351415166568134207381036
2.603717933687356378413824 -0.04578239612877034458993109 1.350499670183873401896335
2.602608472119488425278178 -0.01344840316318366042758203 1.350999340367746714974828
2.603717933687356378413824 0.01888558980240303414310787 1.350499670183873401896335
2.600999340367746714974828 -0.01442957775325574149016816 1.352117884824452609393575
2.600499670183872957807125 0.01790441521233095828469217 1.352736759097284302555408
2.600499670183873401896335 -0.04676357071884243432613459 1.352736759097284746644618
2.845859003177007018337008 -0.006864242652413442280501243 1.359042208830119058404762
2.84792950158850333153282 0.02232809385792728154584985 1.36187292242574931044885
2.84792950158850333153282 -0.03605657916275416263740539 1.36187292242574931044885
2.841928519850148937564427 -0.0458590031770073902617213 1.35697171041862274520895
2.841928519850149825742847 0.0458590031770073972006152 1.356971710418622523164345
2.839858021438653068457825 -0.01666666666666666296592325 1.354140996822992493164861
2.835927538111795431774453 0.0005237063669661725946041786 1.352070498411495957924444
2.835927538111795431774453 0.03385703970029949744224851 1.352070498411496402013654
2.887078062873279726829878 -0.007027030382280778295078782 1.394105093255560312570651
2.877381391553298417562701 0.01451648946217373205291867 1.388210186511120713959144
2.887078062873279726829878 0.03606000930662824066619265 1.394105093255560312570651
2.871486484808859263040404 -0.03821018651112118025281461 1.382339638596020048311175
2.871486484808859263040404 0.03821018651112118025281461 1.382339638596020048311175
2.855894906744439243340139 0.01467927719204106459804926 1.370574183936480228140908
2.861789813488878397862436 -0.006864242652413446617309933 1.376444731851580671744273
2.855894906744438799250929 -0.02840776249686795609794565 1.370574183936480006096303
2.448756020967467694759989 0.04158274558295142753205909 1.442826724615483557911944
2.447512041934935211884294 -0.01666666666666666296592325 1.444547393758943254482574
2.448756020967467694759989 0.008249412249618096396042155 1.442826724615483557911944
2.443346130943575555960479 0.008334844683947101318111095 1.447512041934935433928899
2.440424198984747938823148 -0.0225105305843215676431246 1.448756020967467694759989
2.440424198984747938823148 0.03918021995221577374879374 1.448756020967467694759989
2.446448912834647604341853 -0.04751204193493533539660589 1.443484264658655868984738
2.442283001843287948418038 -0.04751204193493533539660589 1.446448912834647604341853
2.442283001843287948418038 0.04751204193493533539660589 1.446448912834647604341853
2.446448912834648048431063 0.0475120419349353423354998 1.443484264658655646940133
2.491722941000261926092207 0.008899015242310811743542409 1.417176074242048500195779
2.483445882000523852184415 -0.01666666666666669766039277 1.421172448621417228054042
2.491722941000261926092207 -0.02443431809102252633136843 1.417176074242048500195779
2.474873979937593393430006 -0.0004771374591929495971587283 1.425351117396786992941315
2.474579136874401008583391 0.0001125486671911097268095059 1.425533411792788029970325
2.483656581638844063064653 -0.03344588200052450027710549 1.42138314825973743893428
2.466484372270665303972237 -0.01725635279305074917810536 1.430663528220533109447388
2.466989914972177455609881 -0.03344588200052449333821158 1.430691933462852505343221
2.475084679575913604310244 0.01725635279305070060584804 1.425561817035107425866158
2.466695071908985514852475 0.03381047079252623432932268 1.430874227858853320327626
2.483656581638844063064653 0.03344588200052447252152987 1.42138314825973743893428
2.458094764603736770425257 0.02788117444054232299532892 1.435975939044279003908855
2.466189529207472919125621 0.0107373703146827290805243 1.430845822616533924431792
2.458094764603736326336048 -0.006406433811176831874534265 1.435975939044279003908855
2.512646012629384806302824 -0.04596514063516025927480513 1.405450999955810686969926
2.505450999955810331698558 -0.04596514063516025927480513 1.409844233243370270614037
2.505450999955810331698558 0.04596514063516025233591122 1.409844233243370270614037
2.512646012629384362213614 0.04596514063516025233591122 1.405450999955810686969926
2.516407455029567863391549 -0.03157511528801223987805713 1.40201742968241949149899
2.51122987203841319114872 -0.002276641319518660916410013 1.404034859364839293860427
2.516407455029567419302339 0.02702183264897493886191882 1.40201742968241949149899
2.504034859364839604722874 -0.007880200091547009955128544 1.408428092652399321593748
2.502017429682419802361437 0.02141827387694658635375333 1.410803896257539102876422
2.502017429682419802361437 -0.03717867406004059238622261 1.410803896257539324921026
2.899237680274664441526511 -0.01493212558146708897333088 1.401629590267934988290222
2.899618840137332398398939 0.01763888802653071352644076 1.402115700947867082959419
2.899618840137332398398939 -0.04750313918946487412586777 1.402115700947867305004024
2.898543751535085810644432 -0.04923768027466447760875923 1.401248430405267697551608
2.898543751535085366555222 0.04923768027466444985318361 1.401248430405267253462398
2.898162591672417853772004 -0.01666666666666669072149887 1.40076231972533560288241
2.897468662932839222889925 0.01375416973683817739582125 1.400381159862667423965377
2.897468662932839222889925 0.04708750307017151720545556 1.400381159862667423965377
2.936562953325838609686116 0.008002307221738336195926422 1.425771533618363173800958
2.943281476662918727527085 0.02789859388091073255644403 1.431387497225485194718431
2.943281476662918727527085 -0.01189397943743408271599638 1.431387497225485194718431
2.914259430433810749150325 -0.03306598882508240966338064 1.411029810441305487600516
2.929177614850099420351626 -0.03656295332583905932644086 1.421615815135129690105487
2.904311287104225147714942 -0.04650303549924335311249735 1.405178557646825199256568
2.904311287104225147714942 0.04650303549924326290687659 1.405178557646824533122754
2.914259430433811193239535 0.03306598882508234027444161 1.411029810441305487600516
2.929177614850099420351626 0.03656295332583908014312257 1.421615815135129468060882
2.921644768909550382574025 -0.0131697021659099942209048 1.415185528924539193340593
2.913445107830342273302904 0.00322961999250565923516576 1.410215487837837011753095
2.903496964500756227778311 -0.01493212558146715662754644 1.404364235043356501364542
2.901748482250378291524839 0.01490424325110952658013375 1.403483023335577728474277
2.901748482250378291524839 -0.04476849441404374962960588 1.403483023335577728474277
2.963534777051673785308594 -0.03456779940759401037464471 1.448102576459268542308223
2.959613523836933879351818 -0.005029313155723413863995575 1.446205152918537351069972
2.963534777051673785308594 0.02450917309614718958554747 1.448102576459268542308223
2.957716100296202910158172 -0.0462051529185372733543602 1.443770396736804517701103
2.957716100296202910158172 0.0462051529185372733543602 1.443770396736804295656498
2.95189742354073070274012 0.03754079347360890495099994 1.439438217014340271049377
2.953794847081462116022976 0.008002307221738308440350806 1.441872973196073104418247
2.95189742354073070274012 -0.02153617903013229153974528 1.439438217014340271049377
2.39628409507003947709336 0.02637561195405006830849715 1.480091516884009639198894
2.392568190140080375272191 -0.01666666666666666296592325 1.484471901047065056644669
2.39628409507003947709336 -0.006957721379283271501137165 1.480091516884009639198894
2.382499437988579771285913 -0.003470837636334001170823615 1.492568190140080242045428
2.376146590767039157299223 -0.02937236110974773134474347 1.496284095070040010000412
2.376146590767039157299223 0.02243068583707972379892581 1.496284095070040010000412
2.390726908842099263097225 -0.0425681901400803974766518 1.482630619749083944469703
2.380658156690598659110947 -0.0425681901400803974766518 1.490726908842099129870462
2.380658156690598659110947 0.0425681901400804044155457 1.490726908842099129870462
2.390726908842099263097225 0.0425681901400804044155457 1.482630619749083944469703
2.42208250461283824961356 -0.04243485896189278655521449 1.45958174893753112044692
2.409581748937530853993394 -0.04243485896189278655521449 1.468152126511182764545538
2.409581748937530853993394 0.0424348589618928073718962 1.468152126511182320456328
2.42208250461283780552435 0.0424348589618928073718962 1.45958174893753112044692
2.42878408186966732174028 -0.01743334761127901533228624 1.453782570519053907176499
2.420065896713413877705534 0.008334844683947108257004999 1.457565141038107414672709
2.42878408186966732174028 0.03410303697917322490740233 1.453782570519053685131894
2.407565141038106926174578 0.0004740884806363418750747851 1.466135518611758614682117
2.403782570519053418678368 0.02624228077586246432595374 1.47092332566635652923992
2.403782570519052974589158 -0.02529410381458978632207568 1.47092332566635697332913
2.992885388619275666144404 -0.0009750961222856751329027269 1.464960396652914553783376
2.996442694309637833072202 0.02524362583032378065661661 1.469248876234743095281488
2.996442694309637833072202 -0.02719381807489512636877294 1.469248876234743095281488
2.985594704398442988946272 -0.04288538861927612688695888 1.461403090962552386855577
2.985594704398442988946272 0.04288538861927611300917107 1.461403090962552386855577
2.982037398708080822018474 -0.01666666666666666990481716 1.457114611380723845357466
2.974746714487247700731132 -0.01214392453644729148731773 1.453557305690361900474272
2.974746714487247700731132 0.0211894087968860396486992 1.453557305690361900474272
3.029367387359278129821405 -0.01644892095552145244719 1.495816308314799947254414
3.020959231207438921984476 0.008517029007411823504636317 1.491632616629599894508829
3.029367387359278129821405 0.03348297897034508557867483 1.495816308314799947254414
3.016775539522238425149681 -0.04163261662959993197885566 1.486995426920323826180947
3.0167755395222393133281 0.04163261662959993891774957 1.486995426920323826180947
3.004183691685200052745586 0.0239908538406476065651951 1.478174545525847705107481
3.008367383370399217312752 -0.0009750961222856589782903569 1.482811735235123551390757
3.004183691685199608656376 -0.02594104608521893146066972 1.478174545525847705107481
2.346029689052176792074533 0.02388516437350155299790266 1.527855475321324263404676
2.342059378104354383509644 -0.0166666666666666525575824 1.532972271238928207992558
2.346029689052176792074533 -0.009448168959831778138114267 1.527855475321324263404676
2.33569632947783611953696 0.003940569413630600793807535 1.542059378104354561145328
2.333303591799140708218374 -0.02145214202405735029466349 1.546029689052177413799427
2.333303591799141152307584 0.02933328085131854667810813 1.546029689052177413799427
2.341150394117602395738231 -0.04205937810435460277869169 1.532063287252176664310355
2.334787345491084575854757 -0.04205937810435461665647949 1.541150394117603017463125
2.334787345491085019943966 0.0420593781043546235953734 1.541150394117603461552335
2.341150394117602395738231 0.04205937810435461665647949 1.532063287252176664310355
2.36288155214359019140602 -0.04541178347932264824926563 1.506283637628423877075079
2.356283637628424187937526 -0.04541178347932264824926563 1.513863197429664353421686
2.356283637628423743848316 0.04541178347932265518815953 1.513863197429664353421686
2.36288155214359019140602 0.04541178347932265518815953 1.506283637628424099119684
2.36548993729067102975705 -0.0322159544489899890562512 1.502294108260338489913011
2.361186131035843516201567 -0.003470837636334001170823615 1.504588216520677423915231
2.36548993729067102975705 0.02527427917632198151043355 1.502294108260338711957615
2.354588216520677068643863 -0.001507547064186394837961847 1.512167776321917234128023
2.352294108260338134641643 0.0272375697484695845906888 1.517453227862818998517014
2.352294108260338134641643 -0.03025266387684237903710205 1.517453227862818554427804
3.047303973645468566644468 -0.01064372834555699955105812 1.505707495515085314607973
3.048651986822734194504392 0.0199935786332457801628415 1.507370951498375077903802
3.048651986822734194504392 -0.04128103532435978273440469 1.507370951498375077903802
3.044577167993106403542924 -0.04730397364546944094509939 1.504359482337819686748048
3.044577167993106403542924 0.0473039736454694548228872 1.504359482337820352881863
3.04322915481584121977221 -0.01666666666666665602702935 1.502696026354530367541429
3.040502349163479056670667 0.005821002652881270347795528 1.501348013177265183770714
3.040502349163479056670667 0.03915433598621460148381246 1.501348013177265183770714
3.084007819542187167627389 0.01050856059541751402752752 1.529579794088855138056715
3.092003909771094072311826 0.02784971347093811305795086 1.535171317490990894327751
3.092003909771094072311826 -0.006832592280103130973067938 1.535171317490990894327751
3.073874934725392193968219 -0.02002164242170182545388357 1.523200448516538019205768
3.083548512831815635593102 -0.03400781954218726199634659 1.529794973587337736375957
3.065204358287631158930253 -0.03601382287951455929420064 1.518215827448186505677086
3.065204358287631158930253 0.03601382287951460786645796 1.518215827448186505677086
3.073874934725392193968219 0.02002164242170191912895127 1.523200448516538019205768
3.083548512831815635593102 0.03400781954218731750749782 1.529794973587337736375957
3.074334241435763281913296 -0.002680489546181182188011594 1.522985269018055420886526
3.072656753558245856794429 0.0006744862088540238848760611 1.521982267349391904076583
3.063986177120485265845673 -0.01064372834555696312186512 1.516997646281040390547901
3.056993088560242100015785 0.008703427867290933206412262 1.513016026881352615873766
3.056993088560242544104995 -0.02999088455840490108350593 1.513016026881352615873766
3.10974258202702902309511 -0.03890439951238687521506421 1.548646981539416156437028
3.106900818704390054847408 -0.008277103100220967873967837 1.547293963078832712554345
3.10974258202702902309511 0.02235019331194494987546939 1.548646981539416600526238
3.10554780024380594483091 -0.04729396307883258071536048 1.545567928503791765848518
3.10554780024380683300933 0.04729396307883258071536048 1.545567928503791765848518
3.10135301846058375474513 0.04113585700758337626581351 1.542488875468167375260009
3.102706036921166976583208 0.01050856059541745331220586 1.544214910043208321965835
3.10135301846058375474513 -0.02011873581674845229416704 1.542488875468167153215404
2.329364477690500923046102 -0.01329880064994935079392135 1.592663278340450405679007
2.325687321334575230480368 0.005361089364284298344753843 1.585326556680900722540173
2.329364477690500923046102 0.02402097937851792666674733 1.592663278340450405679007
2.328503780951427515333307 -0.03538411852581056088462574 1.56820016291127872776201
2.325536884570828632945449 -0.02071067520671085460115535 1.577530107918395430033343
2.329242821849209388318513 -0.03532655668090028955319326 1.586888833847967195112005
2.325536884570828632945449 0.02071067520671090664285963 1.577530107918395652077947
2.329242821849209388318513 0.03532655668090032424766278 1.58688883384796786124582
2.328503780951427515333307 0.03538411852581059557909526 1.56820016291127872776201
2.32791517681739179579381 -0.0147768824455133049311506 1.557307940737095108829635
2.324919499514337850598622 0.003940569413630614671595342 1.564615881474189507116535
2.32791517681739179579381 0.02265802127277451519238305 1.557307940737095108829635
2.321952603133739412299974 0.001993223347567006989433658 1.573945826481306653477077
2.321981384056194475107304 -0.002050785192477203727756674 1.575967830751328735416905
3.141825087008687678036267 0.0006610761849087191119669904 1.566838784417099894596959
3.145912543504343794609213 0.02581949652692997615455184 1.57141519934723139506616
3.145912543504343794609213 -0.02449734415711252860647917 1.571415199347231617110765
3.133440658620900265418641 -0.04182508700868792228533266 1.562751327921443778024013
3.133440658620900265418641 0.04182508700868792228533266 1.562751327921443778024013
3.129353202125243704756485 -0.01666666666666667684371106 1.558174912991312055510207
3.120968773737456292138859 -0.01645201609153304489474579 1.554087456495655938937261
3.120968773737456292138859 0.01688131724180029491488852 1.554087456495656383026471
3.176712951326192246881419 -0.01953934624945908443693909 1.596252297575651235561622
3.168978029299619691983025 0.006298582235176809068777359 1.592504595151302604350008
3.176712951326192246881419 0.032136510719812688696706 1.596252297575651457606227
3.165230326875271060771411 -0.04250459515130254606329885 1.588249502334772245148997
3.165230326875271060771411 0.04250459515130255994108666 1.588249502334772245148997
3.153747702424348986482983 0.02649900466954462421864669 1.580246707093893476780977
3.157495404848697617694597 0.0006610761849087433980956541 1.584501799910423613937382
3.153747702424348986482983 -0.02517685229972714891499841 1.580246707093893476780977
2.343548942055906358916673 -0.0006637567238756726661907948 1.614452512915489634792721
2.346774471027953001822652 0.02621851866536370478932838 1.61922843891483836387124
2.346774471027953001822652 -0.02754603211311505012170997 1.61922843891483791978203
2.341121682376761548027844 -0.04354894205590604389088938 1.611226983943442547797531
2.341121682376761992117054 0.04354894205590605082978328 1.611226983943442769842136
2.337896153404714905121864 -0.01666666666666666990481716 1.606451057944094040763616
2.335468893725570538322245 -0.00108996857980968656076648 1.603225528972047175813032
2.335468893725570538322245 0.03224336475352364977942088 1.603225528972047175813032
2.36764021601057628174658 -0.02961230078007277138896214 1.647252516790649767841614
2.362941332819314066426841 -0.001773933865440583236908201 1.644505033581299180411861
2.36764021601057628174658 0.02606443304919162443078484 1.64725251679064954579701
2.360193849609963478997088 -0.04450503358129887648830803 1.638587305095378532371342
2.360193849609963478997088 0.04450503358129885567162631 1.638587305095378088282132
2.352747483209350676247595 0.02717461019075651657006532 1.629922093400107074856464
2.355494966418700819588139 -0.0006637567238756922902501167 1.635839821886027722896984
2.352747483209350676247595 -0.02850212363850787578023471 1.629922093400107074856464
3.196657204037817834318957 -0.009109328118751156347365772 1.607121465236140966936773
3.198328602018908561888111 0.02088120925239920350202638 1.609228736529006997812985
3.198328602018908561888111 -0.03909986548990151966620488 1.609228736529006997812985
3.193144559803164028721767 -0.04665720403781702108059193 1.6054500672550493511892
3.193144559803164028721767 0.04665720403781702108059193 1.6054500672550493511892
3.191473161822072857063404 -0.01666666666666666296592325 1.603342795962183320312988
3.187960517587419051466213 0.00295578627299382130227956 1.601671397981091704565415
3.187960517587419051466213 0.03628911960632714983621128 1.601671397981091704565415
3.238124322656104059348081 -0.004203333003237661076589848 1.642327655659342244831578
3.230570677839038840062358 0.0137853116487796599487492 1.634655311318684134391788
3.238124322656104059348081 0.03177395630079699051506736 1.642327655659342244831578
3.222898333498381617800987 -0.03465531131868400394058227 1.629439658266633061955986
3.222898333498381617800987 0.03465531131868399006279446 1.629439658266633061955986
3.207672344340658288075474 0.008879316533266165545335014 1.616551660873924323169604
3.215344688681316398515264 -0.009109328118751168490430103 1.621767313925975173560801
3.207672344340658288075474 -0.02709797277076849211785436 1.616551660873924323169604
2.392959296616917086453213 -0.0006342977004498035484628127 1.665056887866191326352805
2.396479648308458720862291 0.02565833224980056462283251 1.66955272065775828238543
2.396479648308458720862291 -0.02692692765070018104389682 1.66955272065775828238543
2.387259348042404472067801 -0.04295929661691703232984096 1.661536536174649913988333
2.387259348042404472067801 0.04295929661691705314652268 1.661536536174649913988333
2.383738996350863281747934 -0.01666666666666665602702935 1.657040703383082957955708
2.378039047776351111451731 -0.008814637248523521373400058 1.653520351691541545591235
2.378039047776351111451731 0.02451869608480981843623425 1.653520351691541545591235
2.425299385641889848841402 -0.02090099239600731739763262 1.696200378037897138483459
2.418349125764099216695513 0.004833097013120555597576189 1.692400756075794543420443
2.425299385641889404752192 0.03056718642224842685806152 1.696200378037897138483459
2.414549503801996621632497 -0.04240075607579453509377032 1.687549895854339121470389
2.414549503801995733454078 0.04240075607579453509377032 1.687549895854338899425784
2.403799621962102506245174 0.02509979170867806044786796 1.678899413670780882412714
2.407599243924205545397399 -0.0006342977004498070179097646 1.683750273892236304362768
2.403799621962102950334383 -0.02636838710957768033837922 1.678899413670780882412714
3.248926139793207656936147 -0.01087574884712951862886232 1.653969319116560976468122
3.249463069896603606423469 0.02138372427941162556841448 1.656327847922933305113702
3.249463069896603606423469 -0.04313522197367065935669217 1.656327847922933749202912
3.24802239238766077278342 -0.04892613979320781236737048 1.653432389013165249025406
3.24802239238766077278342 0.04892613979320781236737048 1.653432389013164804936196
3.247485462284264379206888 -0.01666666666666666990481716 1.651073860206792476290616
3.246581714878717050964951 0.01271145144198748341834992 1.650536930103396304758689
3.246581714878717050964951 0.04604478477532081281964338 1.650536930103396304758689
3.264895403716899124901829 -0.03061462082814399993102583 1.69551002454504251559797
3.26418266504088538937367 -0.006261238404725336277600878 1.691020049090085297649466
3.264895403716899124901829 0.01809214401869333604944146 1.69551002454504251559797
3.259692689585928171425167 -0.0410200490900853378950508 1.681738816788144852409914
3.259692689585927727335957 0.04102004909008533095615689 1.681738816788144408320704