# geometry NO_DATA 612
#  x  y  z
2.684660167226796012585055 0.01319762483834211776179135 1.380271978525708265195249
2.692330083613398095110369 0.03119112539847144344173913 1.387534207891610416041317
2.692330083613398095110369 -0.004795875721787212254965116 1.387534207891610416041317
2.667956875777209635458576 -0.02796557081898256094665278 1.395922446596191690559863
2.665094767994316882209205 -0.002787344293265492378708359 1.391844893192383469937567
2.667956875777209635458576 0.02239088223245140618633542 1.395922446596191690559863
2.683210786072282250103171 -0.01842270828245772679165881 1.381883952178819541245502
2.691758723266780339855586 -0.0346601672267959903805945 1.388697368459154590780713
2.678291589196025945796009 -0.02560743424804529794203134 1.386803149055075845552665
2.677112520910558401965318 -0.04184489319238356153096703 1.395351086249573713260475
2.678291589196025945796009 0.02560743424804546447548503 1.386803149055076289641875
2.677112520910557069697688 0.04184489319238372806442072 1.395351086249573713260475
2.683210786072282250103171 0.01842270828245773373055272 1.381883952178819541245502
2.691758723266779895766376 0.0346601672267959903805945 1.388697368459154590780713
2.67611223003229881101106 -0.0004292077223283987806763673 1.373458562245372771570828
2.67523420922440280378396 0.001326833893462667918194953 1.373907375330939872881686
2.670315012348146499476798 0.008511559859050400397850744 1.378826572207196621278058
2.666273836279785758307526 -0.0004292077223282363129808203 1.383296955997886046318968
2.734427897341713986634204 0.01518750586269267469075039 1.381499188922965526415965
2.742213948670856993317102 0.03294873653773985888726372 1.389640223858502388054603
2.742213948670856993317102 -0.002573724812354501699507292 1.389640223858502388054603
2.73225991798902834162277 -0.01913512364816709332426825 1.381165353980647880760557
2.741280197808921847979491 -0.03442789734171383675409572 1.389446053398554425939437
2.723379302651505184940106 -0.03470722630645324546794228 1.388311448404009107449042
2.723379302651505184940106 0.03470722630645325240683619 1.388311448404009107449042
2.73225991798902834162277 0.01913512364816710373260911 1.381165353980647658715952
2.741280197808921847979491 0.03442789734171385063188353 1.389446053398554425939437
2.725407617521820036188274 -0.001373892973119916066648827 1.37321848950505875919248
2.724173389031069980603661 0.001094564008380515159057911 1.373078825022689075652238
2.715292773693546823920997 0.01319762483834211776179135 1.380224919446050524385328
2.707646386846773722822945 0.0312381844781286985290869 1.387510678351781878703264
2.707646386846773722822945 -0.004842934801444468209674632 1.387510678351781656658659
2.756402752489793162027354 -0.04102431828023004461991619 1.39742707077002314974834
2.757060770089862167253614 -0.01283684340685040808915929 1.394854141540046388314522
2.756402752489793162027354 0.01535063146652923191104456 1.39742707077002314974834
2.754487840859884961730586 -0.04485414154004629949668015 1.3966874903680361885705
2.754487840859884961730586 0.04485414154004631337446796 1.3966874903680361885705
2.752572929229977205523028 0.04337498073607232162984815 1.395947909966049227392659
2.755145858459953522867636 0.01518750586269267469075039 1.394114561138059205092077
2.752572929229977205523028 -0.01299996901068696530945346 1.395947909966049227392659
2.592444212903550759818927 0.03260607792586277947632922 1.440161865022311360462481
2.584888425807101874909222 -0.0166666666666666594964763 1.43374725186648266372913
2.592444212903550759818927 -0.0007272554074705574059592217 1.440161865022311360462481
2.580900620285480506765907 0.008691055623423597081833591 1.434888425807102629860879
2.584468601860307579443088 -0.009530703517012359751725548 1.442444212903551292725979
2.584468601860307579443088 0.02691281476385955218066925 1.442444212903551292725979
2.592086039057807322905091 -0.03488842580710262153420587 1.440944865117187889680395
2.588098233536186398850987 -0.03488842580710261459531196 1.442086039057807855812143
2.588098233536185954761777 0.03488842580710263541199367 1.442086039057807855812143
2.592086039057807766994301 0.03488842580710262847309977 1.440944865117187889680395
2.643840699414517381171663 -0.004469391270084374645499281 1.412257938283773883725303
2.646920349707258868221516 0.02270464147776628943686816 1.41527692568932339511889
2.646920349707258868221516 -0.03164342401793519832242652 1.41527692568932339511889
2.636310450261156734796941 -0.02867737734004268193577225 1.42580308417997247971698
2.645395455890586333680403 -0.04384069941451732010939679 1.424320060841026247544505
2.622723433887231170302812 -0.03483667792552534725469826 1.438248926613277856034756
2.622723433887231170302812 0.03483667792552538194916778 1.438248926613277856034756
2.636310450261156734796941 0.02867737734004287622480156 1.425803084179972701761585
2.645395455890586333680403 0.04384069941451749358174439 1.424320060841026247544505
2.634755693785088226377411 -0.001503344592191852404153285 1.413740961622719893853173
2.628750338448400114543801 0.01050736608118419193602655 1.41824297236721585946384
2.615163322074474105960462 0.0143843187854268503983457 1.430688814800521235781616
2.607581661037237097389152 0.03255433004428553989129114 1.438632646489330646488725
2.607581661037237097389152 -0.003785692473431867717537092 1.438632646489330646488725
2.666060907603482021954733 -0.04391907400336717698374756 1.409121246416780603993857
2.659121246416781048083067 -0.04391907400336717004485365 1.415219884115071602437297
2.659121246416781048083067 0.04391907400336733657830735 1.415219884115071380392692
2.666060907603481133776313 0.04391907400336733657830735 1.409121246416780381949252
2.666919785371717921407253 -0.03003975162996616599109245 1.403040462998316195708526
2.66302058718333345410656 -0.002787344293265495848155311 1.406080925996632702279499
2.666919785371717921407253 0.02446506304343500776132814 1.403040462998316195708526
2.656080925996632924324103 -0.004469391270084378982307971 1.412179563694923700722939
2.653040462998316417753131 0.02278301606661613243343112 1.415237738394898414640011
2.653040462998316417753131 -0.03172179860678504131898947 1.415237738394898414640011
2.787162984614414362738444 0.01011279144663727869168923 1.426226744442237404086882
2.79358149230720709255138 0.0306091093943852837755415 1.433197965806096707552797
2.79358149230720709255138 -0.01038352650111068128935266 1.433197965806096485508192
2.778829737270449129482586 -0.03716298461441466804977551 1.419808236749444674273946
2.778829737270449129482586 0.03716298461441462641641209 1.419808236749444674273946
2.77241122957765639966965 -0.01666666666666670459928667 1.412837015385585148763425
2.764077982233690278235372 -0.02567385879243578097885781 1.406418507692792418950489
2.764077982233690278235372 0.007659474540897548422435648 1.406418507692792418950489
2.826033311282786009144274 0.001777375636205069837914028 1.425744064353418938395635
2.826849687368547137111818 -0.0001446234646830986685268894 1.426705063903863202057209
2.824145422799195337404399 -0.005263905674019479265235422 1.435110708969538295676216
2.820624782144083297907855 -0.0237079479768912554371596 1.442555354484769125633647
2.820624782144083297907855 0.01318013662885231598864699 1.442555354484769125633647
2.825517677670863481154129 -0.002808642860050278473871277 1.425373054206179768144125
2.817112032605188609579727 -0.01933068606203386732844685 1.430501761661839843498001
2.814923401647759337862453 -0.03511070896953846776078478 1.439278416874754329413122
2.817112032605188609579727 0.01933068606203380834784866 1.430501761661840065542606
2.814923401647759781951663 0.03511070896953844694410307 1.439278416874754329413122
2.825517677670863925243339 0.002808642860050181329356622 1.42537305420617954609952
2.824701301585102797275795 -0.0008866437591621102384809028 1.42441205465573550448255
2.824185667973179825196439 0.0001446234646830018221678321 1.42404104450849589014183
2.815780022907505397711247 0.01011279144663728216113618 1.429169751964156631629521
2.807890011453752610037782 0.02766610187246602153843256 1.434669469567056099279512
2.807890011453752610037782 -0.007440518979191420786967193 1.434669469567056099279512
2.497874134357686237706275 0.04484738970665515245261901 1.496973255348968523392728
2.49574826871537291950176 -0.01666666666666682256048304 1.495297829211013951322684
2.497874134357686237706275 0.01151405637332182305132555 1.496973255348968523392728
2.494476183459446438916984 0.0141224961548137312866702 1.49574826871537336359097
2.495329963845833720625933 -0.01495910589389274833460597 1.49787413435768645975088
2.495329963845833720625933 0.04320409820352037050250615 1.49787413435768645975088
2.49770554576455428019699 -0.04574826871537330391648268 1.497255106260195534062518
2.496433460508628243701423 -0.04574826871537330391648268 1.497705545764554502241594
2.496433460508628243701423 0.04574826871537314432192289 1.49770554576455428019699
2.49770554576455428019699 0.04574826871537314432192289 1.497255106260195312017913
2.538066982934393145399099 0.006740770837582123545250745 1.473636735817731135966824
2.544033491467196483881708 0.02814108710530877771605063 1.479373946037052078850138
2.544033491467196483881708 -0.01465954543014451674776133 1.479373946037052078850138
2.534214321126411650908494 -0.02234985644353441186504838 1.479480671525351898054623
2.543022424547649151804762 -0.03806698293439331193255271 1.483325827032047072862042
2.523514162992548381936331 -0.03428287350914109576915934 1.48973039015485619884771
2.523514162992548826025541 0.03428287350914110964694714 1.48973039015485619884771
2.534214321126412094997704 0.02234985644353441880394229 1.479480671525351898054623
2.543022424547649151804762 0.03806698293439331193255271 1.483325827032047072862042
2.529258879513156088592041 -0.0009495401758077698373128328 1.469791580311035961159405
2.526417284624722370267591 0.004733649601059983398620989 1.47168363502366217332451
2.515717126490859101295428 0.01576578765794868150496022 1.481933353653166474117597
2.507858563245429550647714 0.03338199450042310389985545 1.490291017570044562745579
2.507858563245429550647714 -0.001850419184525755201403685 1.490291017570044562745579
2.580123422784754261272155 -0.03836883944070953317284633 1.467444561639709599276671
2.567444561639709466049908 -0.03836883944070953317284633 1.479148280391833880642594
2.567444561639709466049908 0.03836883944070952623395243 1.479148280391834102687199
2.580123422784754261272155 0.03836883944070952623395243 1.467444561639709599276671
2.581173302569735206191126 -0.01301111715061927832925992 1.455815580279645304884184
2.574310021704335316172774 0.008691055623423581469322308 1.461631160559290210088079
2.581173302569735206191126 0.03039322839746644994152192 1.455815580279645304884184
2.561631160559290076861316 0.006740770837582122677889007 1.473334879311414491454002
2.555815580279644727568211 0.02844294361162499201745035 1.47922301778389386761603
2.555815580279644727568211 -0.01496140193646073625333148 1.47922301778389386761603
2.839936499498338040581302 0.004108679592917168985066745 1.470451173631454278023512
2.844968249749169064699572 0.02737851242458817085934086 1.47580709651041530605653
2.844968249749169064699572 -0.01916115323875386758367689 1.47580709651041530605653
2.834002963578825973200992 -0.03993649949833766310547389 1.465419423380623253905242
2.834002963578825973200992 0.03993649949833770473883732 1.465419423380623031860637
2.828971213327994949082722 -0.01666666666666662827145373 1.460063500501662447916829
2.823037677408482881702412 -0.01532740617568175735263569 1.455031750250831423798559
2.823037677408482881702412 0.01800592715765158072227514 1.455031750250831423798559
2.882190239941182063887481 0.01283397466124375566054461 1.480643734720061832632609
2.888220600966524109765032 -0.000773252610560338062353769 1.487447348355964038546517
2.89328226620582018568939 0.01089658308915267964644968 1.496167307994577200247477
2.892313570419775548003827 -0.01860405823875774938835903 1.498083653997288822168343
2.892313570419775103914617 0.04039722441706327521471209 1.498083653997288822168343
2.879323484171039559953442 -0.01856748620152928047621899 1.478550231560479488734927
2.870603524532425954163273 -0.03446090025763578340578519 1.480991197662218095132403
2.878531945541865866289299 -0.04616730799457725853418566 1.491804660460414044820254
2.870603524532425954163273 0.03446090025763563768901321 1.480991197662217873087798
2.87853194554186497811088 0.04616730799457709200073197 1.491804660460413822775649
2.879323484171039559953442 0.01856748620152913129000005 1.478550231560479488734927
2.873293123145697514075891 -0.004960258929725186102799306 1.471746617924577282821019
2.870426367375555010141852 0.000773252610560190610858311 1.469653114764994938923337
2.861706407736941404351683 0.004108679592917158576725889 1.472094080866733545320812
2.855853203868470746584762 0.0257356051893090111148954 1.47662855012805449561597
2.855853203868470746584762 -0.01751824600347472171701924 1.47662855012805493970518
2.435265796091695911229635 0.01162185619918221224367016 1.528878465341228842788723
2.44263289804584804443266 0.03022098562421123360555164 1.535655624820001285968374
2.44263289804584804443266 -0.006977273225846814322381739 1.535655624820001285968374
2.432188141253075031045228 -0.01103318703609537133891738 1.543221328289170468650582
2.426262078192781945773504 0.008742802875578926241617594 1.536442656578341114936848
2.432188141253075031045228 0.02851879278725318739295957 1.543221328289170912739792
2.43355224916002033097584 -0.01900353045192070683411245 1.531619786401657856700353
2.442087783006799295293376 -0.03526579609169568085835778 1.537632915014694789945793
2.431031356158335654527036 -0.02018039093856595009301991 1.534140679403342533149157
2.435604958109570450375259 -0.03644265657834092758671218 1.542676213250121719511299
2.431031356158335210437826 0.02018039093856600907361809 1.534140679403343199282972
2.435604958109570894464468 0.03644265657834096922007561 1.542676213250122163600508
2.43355224916002033097584 0.01900353045192073458968807 1.531619786401657856700353
2.442087783006799739382586 0.03526579609169569473614558 1.537632915014695011990398
2.426730262244916502822889 -0.0004044010268916788043876143 1.522865336728191687498679
2.425561830352289671708377 0.001932462758362380296842109 1.523629367593926975388285
2.423040937350604551170363 0.003109323245007652395527353 1.526150260595612095926299
2.421688476241546705836072 -0.0004044010268916490430379795 1.527907122731561706530101
2.486296817596004959938227 -0.03606213849691913830852741 1.520902236185264655432547
2.470902236185264833068231 -0.03606213849691913830852741 1.535046497618189009770617
2.470902236185264833068231 0.03606213849691915218631522 1.535046497618189009770617
2.486296817596004959938227 0.03606213849691914524742131 1.520902236185264655432547
2.487758093573020801159146 -0.005272975675438583594012432 1.50696893075154036978347
2.47933244291382104407262 0.01412249615481389608540042 1.513937861503080961611545
2.487758093573021245248356 0.03351796798506636448911067 1.50696893075154036978347
2.463937861503080917202624 0.01162185619918221224367016 1.528082122936005760038825
2.456968930751540547419154 0.03101732802943468758627432 1.535257453617389744593424
2.456968930751540547419154 -0.007773615631070270037827896 1.53525745361738952254882
2.897342954201313602879964 -0.01121939314642066143346 1.505380682558810079285649
2.898671477100656979075666 0.01945689438822582884025536 1.506775796419590029984192
2.898671477100656979075666 -0.04189568068106701292929728 1.506775796419589585894983
2.895786435311900053335421 -0.04734295420131315323963861 1.504052159659466703089947
2.895786435311900053335421 0.04734295420131302833954834 1.504052159659466925134552
2.894457912412556233050509 -0.01666666666666680174380133 1.502657045798686974436009
2.892901393523143127595176 0.008239537290465866539723727 1.501328522899343598240307
2.892901393523143127595176 0.04157287062379920461463456 1.501328522899343598240307
2.93538420664027288609077 0.01395237034396740877228993 1.529925311865043768833061
2.942692103320136087774017 0.03266991031757401908741656 1.537926933690497488527171
2.942692103320136087774017 -0.00476516962963920241019844 1.537926933690497932616381
2.915105882528679970278063 -0.03241237395113821806447163 1.513055009221740299096837
2.930286632850779060532886 -0.03538420664027328715883769 1.526878611382489703274246
2.905747112541876564506538 -0.0470281673108649336811915 1.508470749301999980218625
2.905747112541877008595748 0.04702816731086480184220733 1.50847074930200020226323
2.915105882528680414367273 0.03241237395113807234769965 1.513055009221740521141442
2.930286632850779060532886 0.03538420664027328021994379 1.526878611382489703274246
2.920203456318173795835946 -0.013694833977531607749345 1.516101709704294364655652
2.912330602675938795442789 0.002050873306939803800835742 1.510279729368998680172353
2.902971832689135389671264 -0.0112193931464206683723539 1.505695469449258361294142
2.901485916344567872471316 0.0191421074977776058123613 1.506933189864813948943834
2.901485916344567872471316 -0.04158089379061879337085017 1.506933189864813726899229
2.95991081812629452940655 -0.03621002640450646931080669 1.546120844530801452521018
2.960774142266944242152249 -0.0106350040095700010267521 1.542241689061603304722325
2.95991081812629452940655 0.01494001838536638572529913 1.546120844530801452521018
2.956894986797746316398161 -0.04224168906160305492214491 1.544763696369451988488208
2.956894986797746316398161 0.04224168906160313818887175 1.544763696369451988488208
2.953879155469197659300562 0.03952739273890387705634453 1.543406548208102302410794
2.95775831093839602914386 0.01395237034396749550846373 1.540884540900253618644911
2.953879155469197659300562 -0.01162265205096897104086739 1.543406548208102524455398
2.435753261101901934182479 -0.007399802580747849578557407 1.593153063682649639432043
2.428147035026976929827924 0.01223965811788437288432085 1.586306127365299190046244
2.435753261101901934182479 0.03187911881651659534719911 1.593153063682649639432043
2.432459710152584442255375 -0.03749136662969812516799095 1.569754975381461470362865
2.426601911698812230611111 -0.02379749399499701129068185 1.579574705730777850476443
2.434800757405937154942421 -0.03630612736529888195935456 1.589987055712293262388357
2.426601911698812674700321 0.02379749399499704598515137 1.579574705730777850476443
2.434800757405937154942421 0.03630612736529889583714237 1.589987055712293484432962
2.432459710152584442255375 0.03749136662969815292356657 1.56975497538146169240747
2.431663786227396872874351 -0.01208189708745257065491963 1.556254316685151239951779
2.425213368141425185342541 0.008742802875578912363829787 1.562508633370302213450032
2.431663786227396872874351 0.02956750283861037456589749 1.556254316685151239951779
2.419355569687652973698277 0.002972794031965582915721935 1.5723283637196181494744
2.419948189319852449585824 -0.004158033296364787093080118 1.57589377738378333404512
2.98797439160838340654891 0.008107072208476244837282998 1.574412477829187917421905
2.993987195804191703274455 0.02941479715019303109446724 1.580786543070951122302858
2.993987195804191703274455 -0.01320065273324056917547686 1.580786543070951122302858
2.980336360466072864738862 -0.03797439160838345095783097 1.568399673633379842740965
2.980336360466073308828072 0.03797439160838347871340659 1.56839967363337962069636
2.974323556270264568013317 -0.01666666666666662827145373 1.562025608391616637860011
2.96668552512795447029248 -0.02266061240118659794728906 1.556012804195808119089861
2.96668552512795447029248 0.0106727209321467314540044 1.556012804195808119089861
3.02962952955885045369655 0.008251458308998073365447823 1.578621928750147063169607
3.03350335851117325347559 -0.0005038004043521973358138455 1.582999558106822135528091
3.035499794904039649878769 0.004496673190084525019438733 1.591584791642331575545199
3.033622402344583690592117 -0.0204214517855802399348697 1.595792395821165943203823
3.033622402344582802413697 0.0294147981657494894669469 1.595792395821165721159218
3.028018847098121302252594 -0.01147282323045661391047734 1.57751504669376996226049
3.01943361356261208428009 -0.02763568949277128011798865 1.581820483000184296429325
3.023040732416208076216435 -0.04158479164233162828079315 1.59151259859207039326634
3.01943361356261208428009 0.02763568949277107195117154 1.581820483000184296429325
3.023040732416207632127225 0.04158479164233143399176384 1.59151259859207039326634
3.028018847098121302252594 0.01147282323045637972280808 1.57751504669376996226049
3.024145018145798502473554 -0.002717564517106342558694365 1.573137417337094889902005
3.022534335685069351029597 0.0005038004043519640155063266 1.572030535280717788992888
3.013949102149560133057093 0.008107072208476201469196099 1.576335971587131901117118
3.006974551074780066528547 0.02749130339224918964657896 1.581748289949923114150465
3.006974551074780066528547 -0.01127715897529677283039895 1.581748289949923114150465
2.43720579499008893620271 -0.01325327965475702612918596 1.614500898515865978666284
2.443602897495044778963802 0.007285848668665191943394355 1.60981048951686522840987
2.443602897495044778963802 -0.03379240797817916613920985 1.60981048951686522840987
2.441389393220653847293988 -0.03720579499008888624267399 1.608103796010910357949797
2.441389393220653847293988 0.03720579499008880991484105 1.608103796010910579994402
2.434992290715698004532896 -0.01666666666666673929375619 1.612794205009910886161606
2.439175888946262915624175 -0.0005545468920268234458426093 1.606397102504955487489724
2.439175888946262915624175 0.0327787864413065094248978 1.606397102504955487489724
2.488684606500307427978669 -0.00414482923809238092832663 1.642829435738400123412362
2.480098149642553373439569 0.01484737557204120379783507 1.63565887147680055768717
2.488684606500307427978669 0.03383958038217481367748718 1.642829435738400345456967
2.472927585380953807714377 -0.03565887147680027458029883 1.627869462577688608462267
2.472927585380953807714377 0.03565887147680025376361712 1.627869462577688608462267
2.457170564261600187450085 0.005738925155376638394255639 1.612909489416976649422963
2.464341128523200197264487 -0.01325327965475696714858778 1.620698898316088598647866
2.457170564261600631539295 -0.03224548446489055447683469 1.612909489416976649422963
3.044460089942754521530333 -0.005296916703394227883550105 1.6112247850388810022082
3.047230044971377171947324 0.02249650657269450237940589 1.614139704991895074570607
3.047230044971377171947324 -0.03309033997948279681722283 1.614139704991895074570607
3.041145048233086178868234 -0.04446008994275538889207056 1.608454830010258795880418
3.041145048233085734779024 0.04446008994275524317529857 1.608454830010258795880418
3.038375093204463972540452 -0.01666666666666682256048304 1.605539910057244501473406
3.035060051494795629878354 -0.001043236867160041159152684 1.602769955028622295145624
3.035060051494794741699934 0.03229009646617329171158772 1.602769955028622295145624
3.084987266923392201789511 0.01479644086568428391903485 1.630744286842782830859733
3.092493633461695701214467 0.03311704112241019293261246 1.638969474070654630537547
3.092493633461695701214467 -0.003524159391041632900798408 1.638969474070654630537547
3.071039929566188764198387 -0.02875052671024115949482969 1.619385995976129866136262
3.084588226126280474659325 -0.03498726692339257371422434 1.631999179635730046200592
3.06187962943782610025778 -0.04376325978684858508671596 1.617564504419462645401495
3.06187962943782654434699 0.04376325978684841855326226 1.61756450441946331153531
3.071039929566189208287597 0.02875052671024099296137599 1.619385995976130532270076
3.084588226126280918748535 0.03498726692339258065311824 1.631999179635730046200592
3.071438970363301379506993 -0.01042992645351524180763469 1.618131103183183316929217
3.06539704034151405664943 0.001653933590059075394232413 1.613743106751455158587305
3.056236740213150504530404 -0.005296916703394241761337913 1.611921615194787493763329
3.05311837010657516344736 0.02179967641678767775736958 1.614488120069848431370474
3.05311837010657516344736 -0.03239350982357598607297433 1.614488120069848209325869
3.107258680194886046876945 -0.04017805249655258259533497 1.647436732691438976416975
3.107474241060284914084377 -0.01197125378034147487327221 1.644873465382877819607188
3.107258680194886046876945 0.01623554493586945937644295 1.647436732691438976416975
3.104910973751723535229985 -0.04487346538287759895036189 1.646501619790947446020368
3.104910973751723535229985 0.04487346538287777242270948 1.646501619790947668064973
3.102563267308561023583025 0.0430032395818953777633098 1.645566506890456581757576
3.105126534617122402437417 0.01479644086568445045248854 1.643938352482386733299791
3.102563267308561023583025 -0.01341035785052665726957422 1.645566506890456581757576
2.496861519733948764354636 -0.01563105591235150471085547 1.653656285643208434521512
2.498430759866974604221923 0.01456379715493082496746702 1.652604850887340326437425
2.498430759866974604221923 -0.04582590897963399745318469 1.65260485088734054848203
2.497521114319662061120653 -0.04686151973394898917479878 1.65208704551018326078804
2.497521114319661617031443 0.04686151973394916958604028 1.652087045510183038743435
2.495951874186636221253366 -0.01666666666666649643246956 1.653138480266051146827522
2.496611468772348629840963 0.01170889530599038622082908 1.651569240133025306960235
2.496611468772348629840963 0.04504222863932372256101644 1.651569240133025306960235
2.547323813829297289856868 0.03450111806937231073710848 1.687177304240074615648837
2.544647627658595645527839 -0.01666666666666686419384646 1.689574372863984041970298
2.547323813829297733946078 0.001167784736038977866368072 1.687177304240074615648837
2.535670892206169035887342 -0.001286804238186106371169548 1.686957696444355114806513
2.529370342924445402843503 0.01131429432526197959019143 1.681943951400816761321266
2.538116287173839857871371 -0.04464762765859553450553676 1.68304303237922825431383
2.521680411710205405029228 -0.02926776523011476865976377 1.673485021325548105508574
2.521449620507173250416599 -0.04464762765859553450553676 1.671967425884330893381957
2.529139551721412804141664 0.0292677652301145570234997 1.68042635595959866101623
2.515149071225448285105131 0.03462013757151922305199676 1.666953680840791651718291
2.538116287173838969692952 0.04464762765859532633871964 1.68304303237922736613541
2.507689931214239997814275 0.002322414992500884504955661 1.660012346206741540299845
2.515379862428480883806969 -0.01563105591235169206099087 1.668471276282010196112537
2.507689931214240885992695 -0.03358452681720424520817048 1.660012346206741540299845
2.562930988700047763018119 -0.03457438978214665004085049 1.6975053784821945157546
2.560207426626732285512844 -0.006230299484424398070991913 1.69501075696438907591812
2.562930988700048207107329 0.02211379081329804124900207 1.6975053784821945157546
2.55771280510892662363176 -0.04501075696438910922481114 1.692432123687583223059505
2.55771280510892662363176 0.04501075696438892187467573 1.6924321236875830010149
2.5524946215178054842454 0.03486424737516589933417066 1.687358868892971486275201
2.554989243035611146126485 0.006520157077443460014176679 1.689937502169777561178421
2.5524946215178054842454 -0.0218239332202787919556819 1.687358868892971486275201
3.137688709533141384611099 0.008467221390654916871043589 1.674878234495519535585117
3.143844354766571314030443 0.02948926425712965551650946 1.681289533290750926042278
3.143844354766571314030443 -0.01255482147581981136608142 1.681289533290750926042278
3.129525394543066774133422 -0.03768870953314140681555955 1.668722589262089828210378
3.129525394543066774133422 0.03768870953314139987666564 1.668722589262090050254983
3.123369749309637288803287 -0.01666666666666668378260496 1.662311290466858437753217
3.11520643431956267832561 -0.0242825442472002529792352 1.656155645233429396512292
3.11520643431956267832561 0.009050789086133085095675632 1.656155645233429396512292
3.177670970764149505072282 0.004173796342117281135686291 1.676502825577967259462753
3.17946583263866244806195 -0.0005840725930912164798325392 1.678881760045571436279488
3.176274008855939801065915 -0.005799574972355499985487981 1.68750712967545046794271
3.171287323198703322901792 -0.0266400379811394527607149 1.693753564837725322789197
3.171287323198703322901792 0.01504088803642844932029199 1.693753564837725322789197
3.175846513487132316555517 -0.007822710896151498574657701 1.675262440894041526817659
3.167221143857253728981505 -0.02390530496972694679547189 1.679788087885914382724195
3.165853777351547826413025 -0.03750712967545061227170322 1.68965384219971959112172
3.167221143857253728981505 0.02390530496972693985657799 1.679788087885914382724195
3.165853777351547382323815 0.03750712967545061227170322 1.68965384219971959112172
3.175846513487132316555517 0.007822710896151488166316845 1.675262440894041526817659
3.174051651612619373565849 -0.00306484196094300139281974 1.672883506426437350000924
3.172227194335602185049083 0.0005840725930912060714916834 1.671643121742511173266621
3.163601824705723153385861 0.008467221390654918605767065 1.676168768734384473262367
3.156800912352862198417824 0.02819873001826458946972309 1.681934800410183061813996
3.156800912352862198417824 -0.0112642872369547349109542 1.681934800410183061813996
2.594352834827254206118141 0.01779012086505519368850869 1.723437286037800220128702
2.58870566965450921159686 -0.01666666666666668378260496 1.728247895259782396237824
2.594352834827254206118141 -0.01554321246827813918223171 1.723437286037800220128702
2.580000716392021775646981 -0.0007432398583085628174238479 1.730743956250330395363335
2.576942928302279334218383 0.0053723363211762350383216 1.728429408018896440424328
2.569259475116747015732699 -0.03266208959110069448561475 1.714041291525626009573102
2.582904351751708738049729 -0.03870566965450958352157329 1.717228393765860783304333