# geometry NO_DATA 384
#  x  y  z
4.036723717712533243684447 0.008010140365951028823543467 2.075614685803775838479623
4.043361858856266977113592 0.02806719141181715504451688 2.081314948176351098396708
4.043361858856266977113592 -0.01204691067991509045853604 2.081314948176350654307498
4.035632265694565568026064 -0.006997245003563043116989739 2.092629510698128303403109
4.028871866800089129867501 0.01159510972602771292083723 2.085259021396257406166796
4.035632265694564679847645 0.03018746445561847416283463 2.092629510698128303403109
4.034380219297988290350077 -0.02040503492861314716044774 2.080989834918788083939489
4.042887544572694835665061 -0.03672371771253278571744971 2.08516889704313701514593
4.031722183076926313560762 -0.01894033861233778218147172 2.083647871139850060728804
4.03769372988131358681585 -0.03525902139625742420792065 2.092155196414556606043789
4.031722183076926313560762 0.01894033861233778565091868 2.083647871139850060728804
4.03769372988131358681585 0.03525902139625742420792065 2.092155196414556606043789
4.034380219297988290350077 0.02040503492861314716044774 2.080989834918788083939489
4.042887544572694835665061 0.03672371771253278571744971 2.08516889704313701514593
4.028216392437825810191043 -0.0003479838827470255473335581 2.071435623679426907273182
4.026347208306852110126783 0.003390384379199454581432782 2.072956823927653235983826
4.023689172085790133337468 0.001925688062924089819297202 2.075614860148715212773141
4.022900319995701856612413 -0.0003479838827470255473335581 2.076751696121550416762602
4.087177295912590935245134 0.01105042826028140856564619 2.076681251550882123524389
4.093588647956295289986883 0.03156105750620612909740359 2.084128446970652248637634
4.093588647956295289986883 -0.009460200985643318905005117 2.084128446970652248637634
4.079679742397582131729905 -0.02500471605902930896658809 2.075835779818323789669421
4.090260119137466787719859 -0.03717729591259139043657456 2.083608037355016762148807
4.069424427774620767195302 -0.03782742014643791783612414 2.081762831290928428273901
4.069424427774620767195302 0.03782742014643790395833634 2.081762831290928428273901
4.079679742397582131729905 0.02500471605902929161935333 2.075835779818324233758631
4.090260119137466787719859 0.03717729591259139043657456 2.083608037355016762148807
4.076596919172705391076761 -0.004494086813104582363298523 2.068908994014189595134212
4.072427894476524201650136 0.003843962579258042387003735 2.068583931897266303678862
4.062172579853562837115533 0.008010140365951011476308707 2.074510983369870942283342
4.056086289926781773829134 0.02917089384572226287706265 2.080763096959398428253962
4.056086289926781773829134 -0.01315061311382022257721047 2.080763096959397984164752
4.110279177463883826249003 -0.03418177140708883454678357 2.094460948870973115987226
4.113448165425482194734741 -0.01192654033180857997553659 2.08892189774194658724582
4.110279177463883826249003 0.01032869074347163296234697 2.094460948870973115987226
4.107909114296455221904125 -0.03892189774194687590380681 2.091652829667780544298239
4.107909114296455221904125 0.03892189774194693141495804 2.091652829667780544298239
4.105539051129026617559248 0.03330565933556166313689317 2.088844710464587528520042
4.111078102258052702211444 0.01105042826028145366845656 2.086113778538753571467623
4.105539051129025729380828 -0.01120480281499880784168433 2.088844710464587528520042
3.985019379633945479923796 0.01163893136458617368067525 2.129133419381680880633212
3.992509689816972517917293 0.0299916443318649812710408 2.13579590821427967028967
3.992509689816972517917293 -0.006713781602692633909690301 2.13579590821427967028967
3.98268609517113647555675 -0.01030483562599053375119507 2.142990930797126658546858
3.976856651389877761459957 0.009010359301596621711682999 2.135981861594253405911559
3.98268609517113647555675 0.02832555422918377543983759 2.142990930797126658546858
3.983539868270682404727268 -0.01866146769370794628040144 2.131853821970070228530858
3.992027578967230372342101 -0.03501937963394547576045923 2.137827665015577416340875
3.981372580989916087901292 -0.01962394965401629415291396 2.134021109250836101267623
3.986032138003928970704237 -0.03598186159425382363297174 2.142508819947384068882457
3.981372580989916087901292 0.01962394965401629415291396 2.134021109250836101267623
3.986032138003928970704237 0.03598186159425382363297174 2.142508819947384068882457
3.983539868270682404727268 0.01866146769370794281095449 2.131853821970069784441648
3.992027578967230372342101 0.03501937963394547576045923 2.137827665015577860430085
3.976531668937397512308962 -0.0003087547264291372263629587 2.123159576336172804644775
3.975534268423876582687626 0.001686046300612137902388832 2.123848222123264406491217
3.973366981143110709950861 0.002648528260920488160146125 2.126015509404030723317192
3.972197094375864878657012 -0.0003087547264291369553124156 2.127494150897705438296725
4.034977106399222357424605 -0.03610283659369928344062828 2.120846218202873778579942
4.02084621820287502202973 -0.03610283659369928344062828 2.134999017218500938497527
4.02084621820287502202973 0.03610283659369928344062828 2.134999017218500938497527
4.034977106399222357424605 0.03610283659369928344062828 2.120846218202873778579942
4.03521035809584471820699 -0.007841060201004904084420843 2.106948581703149692145871
4.028028051602647430229354 0.01159510972602771639028418 2.11389716340630018365232
4.03521035809584471820699 0.03103127965306032992609531 2.106948581703149692145871
4.013897163406300094834478 0.01163893136458617368067525 2.128049962421926899480695
4.006948581703150047417239 0.03107510129161879589010375 2.135254179734403123802622
4.006948581703150047417239 -0.007797238562446445059306299 2.135254179734403123802622
4.136591976878010612495018 0.0119376944927339703750313 2.127710203701688840283168
4.143295988439005483883193 0.0318630047040789274315209 2.135308372720394309851599
4.143295988439005483883193 -0.00798761571861095892588267 2.135308372720394309851599
4.128999384939767480773298 -0.03659197687801161308351894 2.121006192140694412984203
4.128999384939767480773298 0.03659197687801159226683723 2.121006192140694412984203
4.122295373378773497563543 -0.01666666666666669072149887 2.113408023121988055237352
4.114702781440529477663404 -0.02533456345379702517872644 2.106704011560993627938387
4.114702781440529477663404 0.007998769879536300753120059 2.106704011560993627938387
4.16078044510095157448859 -0.03377778232821378179284721 2.144558227429165686572787
4.163552881406725525437196 -0.01132799413654797700268251 2.139116454858331906052626
4.160780445100950686310171 0.01112179405511763002900594 2.144558227429166130661997
4.158111108835892189006245 -0.03911645485833227520178212 2.142193741342199420074621
4.158111108835892189006245 0.03911645485833246255191753 2.142193741342199864163831
4.155441772570832803523899 0.0343874826843997977166012 2.139829255255233153576455
4.16088354514166702813327 0.01193769449273419415435971 2.13675196877136563955446
4.155441772570832803523899 -0.01051209369893160890108152 2.139829255255233153576455
3.936980301564227069377466 0.008566874481895133536246689 2.175636469010053808403882
3.943490150782113623506575 0.02888050937945505630688459 2.181743390366448043238279
3.943490150782113623506575 -0.01174676041566478923439121 2.181743390366448043238279
3.926000697987076293316022 -0.0185883953845221751299821 2.19458909337159768782044
3.921116708936141392882746 0.003923124692007399355597741 2.189178186743196086183616
3.926000697987076293316022 0.02643464476853694955504892 2.19458909337159768782044
3.934234384033441500605477 -0.02087598051841281499019232 2.180587415802547557319713
3.94284889017720141524137 -0.0369803015642265892060081 2.18515202585392120937513
3.929488473213063493005848 -0.0230738656973824354801117 2.185333326622926009008552
3.931731208369493302257069 -0.03917818674319620969592748 2.193947832766685479555235
3.929488473213063493005848 0.02307386569738246323568731 2.185333326622925564919342
3.931731208369493746346279 0.039178186743196244390397 2.193947832766685479555235
3.934234384033441500605477 0.02087598051841281499019232 2.180587415802547557319713
3.94284889017720141524137 0.0369803015642265892060081 2.18515202585392120937513
3.928365795420467598830783 -0.0005623456208528904848309438 2.171071858958680156348464
3.926261138494594238323998 0.00364696823089325806999117 2.172614170263700295038234
3.921515227674216674813579 0.005844853409862908917571378 2.177360081084078746727073
3.918873973779711583631524 -0.0005623456208528632713564144 2.180563680599436615636932
3.981570493908467511801064 -0.03751180880886617607927747 2.168731980924334834526235
3.968731980924335545068971 -0.03751180880886617607927747 2.181348751498615623489741
3.968731980924335545068971 0.03751180880886617607927747 2.181348751498615623489741
3.981570493908467511801064 0.03751180880886617607927747 2.168731980924334834526235
3.981921121563829935041667 -0.01183478284060288446277731 2.156244095595566623302375
3.975326704175265568608211 0.009010359301596623446406475 2.162488191191133335422592
3.981921121563829935041667 0.02985550144379613135559026 2.156244095595566623302375
3.962488191191134490054537 0.008566874481895135270970165 2.175104961765414124386098
3.956244095595567333845111 0.029412016624094639710707 2.181477636744128201229387
3.956244095595567333845111 -0.01227826766030437090349015 2.181477636744128201229387
4.187035551813101719176302 0.01072817582952055939782277 2.176661869434991736227403
4.193517775906550504316783 0.03109706097595560728152897 2.183877066589635873583575
4.193517775906550504316783 -0.009640709316914486751159963 2.183877066589635873583575
4.179520445504943282344357 -0.03703555181310171084962946 2.170179645341542506997712
4.179520445504942394165937 0.03703555181310171084962946 2.170179645341542951086922
4.173038221411493609025456 -0.0166666666666666664353702 2.16296444818689836964154
4.165523115103335172193511 -0.02429244232344646148291645 2.156482224093449140411849
4.165523115103335172193511 0.009040891009886867918377007 2.156482224093449140411849
4.225006018836507060143504 9.341802226887601902577743e-06 2.175003322965717522663454
4.225010015769923299444599 -1.347935395061358441031189e-06 2.175008667834528619522416
4.219541953775449272256992 -0.01093477605355337202441834 2.183342675135559574073341
4.214069894847559893946709 -0.02761078452244693226536043 2.191671337567779431765302
4.214069894847559893946709 0.005741232415340188216523742 2.191671337567779431765302
4.225000469233997080209519 -2.044100724877467989003439e-05 2.174999121298601956198127
4.216666461932966569747805 -0.01668575973852038513145501 2.180363883181059669880142
4.211203949541003410672602 -0.03334267513556023188048272 2.188702092149206634985603
4.216666461932966569747805 0.01668575973852038166200806 2.180363883181059669880142
4.211203949541002522494182 0.03334267513556022494158881 2.188702092149206634985603
4.225000469233997080209519 2.044100724876664662956263e-05 2.174999121298601512108917
4.224996472300579952730004 -9.751269626825720605216644e-06 2.174993776429790415249954
4.22499092269806997279602 1.34793539505332518055943e-06 2.174989574762674848784627
4.216656915397039462334305 0.01072817582952055766309929 2.180354336645132562466642
4.208328457698518931806575 0.02740459376581405592787632 2.185723300194706286703195
4.208328457698518931806575 -0.005948242106772931928060366 2.185723300194706286703195
3.889536450531466016400373 0.00375984500234270366259004 2.220676805303038126027104
3.89476822526573318583587 0.02662962886714195787085657 2.225658286403275898379661
3.89476822526573274174666 -0.01910993886245659217903992 2.225658286403275898379661
3.873011811813587002006898 -0.02228093622261996878397561 2.245292748036206820216876
3.868566783852482870997846 0.001637893183127354934658371 2.240585496072413640433751
3.873011811813587002006898 0.02555672258887466477550454 2.245292748036206820216876
3.885290394971890215458643 -0.02360213522356348347930322 2.229087277773757591603498
3.893989903984605760456361 -0.03953645053146592064363674 2.231333375954310582756079
3.878562755003283513133283 -0.0246511807645115356424359 2.235814917742363849839649
3.879747877274229317379195 -0.04058549607241396933732247 2.244514426755079838926576
3.878562755003283513133283 0.02465118076451157380635237 2.235814917742363849839649
3.879747877274229317379195 0.04058549607241399015400418 2.244514426755079838926576
3.885290394971890215458643 0.02360213522356354592934835 2.229087277773757591603498
3.893989903984606204545571 0.03953645053146596227700016 2.231333375954311026845289
3.880836941518750027313445 -0.000732351358764182975603918 2.218430707122484690785313
3.877369207240301651751224 0.006203117198132655427111892 2.22116609004216858380687
3.870641567271694505336654 0.007252162739080682436754177 2.22789373001077528613223
3.867381661581536622662725 -0.0007323513587642130080040959 2.231885987059698095436033
3.925490378491728549192885 -0.03986962589430469161566606 2.215195482812390981308681
3.915195482812391603033575 -0.03986962589430469161566606 2.225408738646895479007526
3.915195482812392047122785 0.03986962589430473324902948 2.225408738646895923096736
3.925490378491728993282095 0.03986962589430473324902948 2.215195482812391425397891
3.925654978411521334180634 -0.01927983453563065011082678 2.20506518705284726422633
3.920425269785032362790389 0.003923124692007416702832501 2.210130374105694794906185
3.925654978411522222359054 0.02712608391964544188312836 2.20506518705284726422633
3.910130374105695416631079 0.003759845002342704529951778 2.22034362994019929260503
3.905065187052848330040433 0.0269628042299807288428859 2.225491698721856259624019
3.905065187052847441862014 -0.01944311422529536315106924 2.225491698721856259624019
4.235081299040171387559894 0.01305672268755847693910699 2.227975423647385433412182
4.239833191535754330914187 -0.003552937696393247690718198 2.236280253839361353840332
4.242848577454289227262052 0.00958370953346259109306704 2.24639005602089136814925
4.241112070877241180255623 -0.02013967982076253493417539 2.24819502801044546203002
4.241112070877241180255623 0.03930709888768772058975642 2.24819502801044546203002
4.237219979127967661725052 -0.03327632705061837892213106 2.233667041431574240561986
4.225224229757412075514367 -0.03688627102972658750035251 2.218805346754461726987984
4.240235365046501669894496 -0.04639005602089180113623001 2.243776843613104254870905
4.240235365046501669894496 0.04639005602089180113623001 2.243776843613104254870905
4.227837442165197856525083 0.03327632705061839279991887 2.221418559162248840266329
4.22997612225299413069024 0.04639005602089180113623001 2.227110176946437647416133
4.22308554966961580134921 -0.01666666666666664908813544 2.21311372897027291983818
4.215841692794643158492818 -0.02404850502382677168711211 2.206556864485135882603117
4.215841692794642270314398 0.009284828309506562918351769 2.206556864485135882603117
3.836465854815717335668523 0.01172491800166337166944075 2.277729937518447655975251
3.843232927407858490198578 0.0315241061507138958797114 2.285158657260471404271129
3.843232927407858490198578 -0.008074270147387154275553378 2.285158657260471404271129
3.8410011675001562991838 -0.0008309248247542523353043054 2.291832092324910696845564
3.832752445262713081319816 0.01616659315839970648132073 2.283664184649821127237601
3.8410011675001562991838 0.03316411114155366768319055 2.291832092324910696845564
3.834647334530927764717489 -0.02000030805571582567803368 2.28151481304854408804772
3.843081227817594314188909 -0.03646585481571719411508781 2.287477832002708044711881
3.832915648131491881400734 -0.01719863788981926266963285 2.283246499447979971364475
3.841099504664024610889328 -0.03366418464982062763724002 2.291680392734646076746685
3.832915648131491881400734 0.01719863788981925573073894 2.283246499447979971364475
3.841099504664024610889328 0.03366418464982062763724002 2.291680392734646076746685
3.834647334530927764717489 0.02000030805571582220858673 2.28151481304854408804772
3.843081227817593870099699 0.0364658548157171871761939 2.28747783200270848880109
3.828031961529051674375523 -0.0002011199066653020369691701 2.27176691856428369931109
3.826365140834526279434158 0.003132521482383858642262187 2.273232619352143046853598
3.824633454435091284295822 0.0003308513164872937907176609 2.274964305751578486081144
3.824568588730180351831223 -0.0002011199066653022538096046 2.275230291363155021855391
3.872796480681712782967452 -0.04092744881433405673698545 2.263644200756815383357434
3.863644200756815472175276 -0.04092744881433405673698545 2.277839993090980286183367
3.863644200756815472175276 0.04092744881433405673698545 2.277839993090980286183367
3.872796480681712782967452 0.04092744881433405673698545 2.263644200756815383357434
3.872840835442627138718308 -0.02262288896454004577529773 2.254536275592832872405324
3.868224831110563144420667 0.001637893183127341056870563 2.259072551185665744810649
3.872840835442627138718308 0.0258986753307947244195919 2.254536275592832872405324
3.859072551185665833628491 0.01172491800166337166944075 2.273268343519830647636581
3.854536275592833405312376 0.03598570014933075850160904 2.28292786026116267805719
3.854536275592832517133957 -0.01253586414600401516272754 2.28292786026116267805719
4.24046131304096451941632 0.004860910546902923526357831 2.26439959750593811094177
4.236376339430659498930254 -0.01303085776751331144318602 2.273345481663146649964347
4.22636924550200809846956 -0.006983330089788073943846136 2.288194243880236733446054
4.220447125183662606673352 -0.02851090730335766737502112 2.294097121940118277905185
4.220447125183662606673352 0.01454424712378151775260537 2.294097121940118277905185
4.230589609261837580334031 -0.03455843498108290834380796 2.267558751494324287278914
4.232951008755116539816754 -0.04636419110084664951809685 2.256794962887538780194063
4.220582515333186179873337 -0.03819424388023626160126867 2.282407513711413926671412
4.220582515333186179873337 0.03819424388023626160126867 2.282407513711414370760622
4.238737738923939346591396 0.03455843498108290834380796 2.262581693056361586968706
4.228866035144811519330688 0.03819424388023626854016257 2.26574084704474731921664
4.242822712534245255255883 -0.01666666666666666990481716 2.253635808899153492035339
4.241099138417219194252539 0.005947900634309230896712428 2.251817904449576523973064
4.241099138417219194252539 0.03928123396764257591051717 2.251817904449576523973064
3.847854653587310380657982 -0.01562113233187255312284236 2.302668113580085940128583
3.848927326793655012693307 0.01556685458877153128975923 2.302118207541138605876085
3.848927326793655012693307 -0.04680911925251673988412904 2.302118207541138605876085
3.848677290039521636799691 -0.04785465358731075258269527 2.301595440373741752182468
3.848677290039521636799691 0.04785465358731084972720993 2.301595440373741752182468
3.847604616833177004764366 -0.0166666666666665658214086 2.302145346412689086434966
3.848427253285388260906075 0.01402124674571056384131396 2.301072673206344454399641
3.848427253285388260906075 0.04735458007904389671205436 2.301072673206344454399641
3.88853341853938205829877 -0.004219741607658245713396994 2.342753160147039714900075
3.880136969049131412390352 0.01461991201975528995027354 2.335506320294080229160727
3.88853341853938205829877 0.03345956564716884990007273 2.342753160147039714900075
3.872890129196171038472585 -0.0355063202940802263851694 2.32660926064777040522813
3.872890129196171038472585 0.03550632029408019862959378 2.32660926064777040522813
3.85724683985295957455719 0.003218521295540879324781347 2.310465361148500651466975
3.864493679705919948474957 -0.01562113233187268149237958 2.319362420794810475399572
3.85724683985295957455719 -0.03446078595928621368660316 2.310465361148500651466975
4.229887682109222168946872 0.001089726433691060774114345 2.321202044324467639313525
4.228261135879879617505139 -0.004342818892377798417614443 2.323918316987501953008177
4.218617039904385634940809 -0.01494537305860868005302766 2.33442305976702435543757
4.21059949015823598017505 -0.03270176615896640964775699 2.342211529883512000083101
4.21059949015823598017505 0.002811020041749048674339928 2.342211529883512000083101
4.220635829330121602254167 -0.02209921199273552974706725 2.316293010437744381846414
4.216599301068381322465939 -0.0376761522257111278189079 2.307414813887565419037173
4.210991733354628507868256 -0.03442305976702439429537606 2.326797753217266340186598
4.210991733354628507868256 0.03442305976702439429537606 2.326797753217266340186598
4.224224607618140225895331 0.02209921199273552627762029 2.315040120437322990198936
4.214972754839038771024207 0.03442305976702439429537606 2.310131086550600176821035
4.225851153847482777337063 -0.0166666666666666664353702 2.312323847774288676504284
4.220188079356399946107103 -0.01930717786407694716577232 2.306161923887144471478905
4.220188079356400834285523 0.01402615546925638917441503 2.306161923887144471478905
3.89574998728233357070394 -0.01488764502056518640449312 2.355139523540716872673784
3.897874993641167407076864 0.01419567559510187537696879 2.353904028004934367857004
3.897874993641167407076864 -0.04397096563623216491922818 2.353904028004934367857004
3.896851616317711375359067 -0.04574998728233373168627907 2.35301451718188348039007
3.896851616317711375359067 0.04574998728233364841955222 2.35301451718188348039007
3.894726609958877538986144 -0.01666666666666674970209705 2.35425001271766598520685
3.895828238994255343641271 0.01036989930208895988039686 2.352125006358832592923136
3.895828238994255343641271 0.04370323263542229275113726 2.352125006358832592923136
3.939465355918491784592561 -0.003137877615440179575323487 2.392603233533931561538566
3.930827827658347928263538 0.01540192278575667692019913 2.385206467067863211894974
3.939465355918491784592561 0.03394172318695352907891305 2.392603233533931561538566
3.923431061192279578619946 -0.03520646706786352553297803 2.376826077690315841550728
3.923431061192279578619946 0.03520646706786352553297803 2.376826077690315841550728
3.90739676646606826082575 0.003652155380631752490394604 2.36104892184669923338447
3.914793532932136166380133 -0.01488764502056510487248975 2.369429311224247047817926
3.90739676646606826082575 -0.03342744542176196570482105 2.36104892184669967747368
4.194778816328136095137324 0.01547551697020977702623501 2.370696700642073828646517
4.189557632656272012638965 -0.0166666666666666664353702 2.377516574813240968211403
4.194778816328136095137324 -0.01785781636312355757922887 2.370696700642073828646517
4.179041695909519127383192 -0.004365206826837415322872804 2.389557632656272190274649
4.173746942834631212804197 -0.02725617281644279743524351 2.394778816328136272773008
4.173746942834631212804197 0.01852575916276796852422137 2.394778816328136272773008
4.184418406008608926072156 -0.03955763265627204594565569 2.372377348165579213912224
4.173902469261857817173222 -0.03955763265627204594565569 2.38441840600861043597547
4.173902469261857817173222 0.03955763265627204594565569 2.38441840600861043597547
4.184418406008608926072156 0.03955763265627204594565569 2.372377348165579213912224
4.207054661781571169854033 -0.03830779231793272898709546 2.356194014977542217081918
4.20619401497754274998897 -0.03830779231793272898709546 2.360819623801178046562654
4.20619401497754274998897 0.03830779231793259714811128 2.360819623801178490651864
4.207054661781571169854033 0.03830779231793259020921738 2.356194014977543105260338
4.207567397449091473049521 -0.03658649870987473740058249 2.355846103841033656323134
4.21255285448609573251133 -0.01494537305860880321839446 2.361692207682067223828426
4.207567397449091473049521 0.006695752592657253261798633 2.355846103841033656323134
4.211692207682067312646268 -0.007415449019395729986225962 2.366317816505702609219952
4.205846103841033745140976 0.0142256766318703282286906 2.365097321488304871195396
4.205846103841033745140976 -0.02905657467066166677049921 2.365097321488304871195396
3.947544477969010756623902 -0.01537696164760006707628026 2.403100374540523720412466
3.948772238984505467129793 0.01550084965474318385303398 2.402517466034561621768262
3.948772238984505467129793 -0.04625477294994331800559451 2.402517466034561621768262
3.948139867044050621558426 -0.04754447796900991562996097 2.401872613525028565817365
3.948139867044050621558426 0.04754447796900991562996097 2.401872613525028565817365
3.946912106028555911052536 -0.01666666666666666990481716 2.402455522030990664461569
3.94750749510359577598706 0.01294640075476658977460254 2.401227761015495509866469
3.94750749510359577598706 0.0462797340880999330536838 2.401227761015495509866469
3.989055573758101047587843 -0.003553899698380867146207951 2.4426094734564816057798
3.980613576694327804261775 0.0149983805479155397205604 2.435218946912963033923916
3.989055573758101047587843 0.03355066079421194225052005 2.4426094734564816057798
3.973223050150809232405891 -0.03521894691296307416950029 2.426587659299348054275924
3.973223050150809232405891 0.03521894691296307416950029 2.426587659299348054275924
3.957390526543518749491568 0.003175318598696339790488086 2.410565845142214946861259
3.964781053087037321347452 -0.01537696164760006707628026 2.41919713275582992650925
3.957390526543518749491568 -0.03392924189389646960623992 2.410565845142214946861259
4.181270944491304319967639 0.001167481332776244872320714 2.419896536841470435774681
4.179011083245233848515454 -0.005687203824917568331653861 2.423323879420316906418975
4.16873486951827221247413 -0.01486522362900829716259032 2.43450081466610956937302
4.160718517037379271528152 -0.0326993716284512125902495 2.442250407333054873504352
4.160718517037379271528152 0.002968924370434616530345373 2.442250407333054429415142
4.171400477583940613612867 -0.02352135182436047855514261 2.415713273759023227427178
4.168634133504133032488426 -0.03902053715825089946767079 2.406796199759301924103738
4.161124263856978089393124 -0.03450081466610957492413547 2.426890209004815446292014
4.161124263856978089393124 0.03450081466610957492413547 2.426890209004815446292014
4.176244739165427155569432 0.02352135182436047855514261 2.414406805420595603095535
4.16637427225806256103624 0.03450081466610957492413547 2.410223542338148394748032
4.178504600411497627021618 -0.01666666666666666296592325 2.410979462841748688362031
4.17347839508562046262341 -0.01534466966858651429395088 2.405489731420874299772095
4.17347839508562046262341 0.01798866366474681857678952 2.405489731420874299772095
3.996305510793072279795979 -0.01404551202634031145666249 2.455005066527090828998325
3.998152755396536139897989 0.01559333210006558223525985 2.454468399243790344144145
3.998152755396536139897989 -0.04368435615274619820969093 2.454468399243790344144145
3.99731861233716045944675 -0.04630551079307256012729255 2.453157821923626968896315
3.99731861233716045944675 0.04630551079307256012729255 2.453157821923626968896315
3.995471367733697043433949 -0.01666666666666666990481716 2.453694489206927453750495
3.99648446927778522308472 0.01130389134098809707229538 2.451847244603463593648485
3.99648446927778522308472 0.04463722467432143514720622 2.451847244603463593648485
4.037353472063239578915272 -0.005772344117717690195612512 2.493125816180956633161259
4.028988011760184839715748 0.01381262157752908073526932 2.486251632361913710411727
4.037353472063239578915272 0.03339758727277586380921548 2.493125816180956633161259
4.022113827941141472877007 -0.03625163236191344950931637 2.477769726834453400954317
4.022113827941141472877007 0.03625163236191343563152856 2.477769726834453400954317
4.006874183819043366838741 0.005539453668906462943666291 2.462413637487950168747375
4.013748367638086733677483 -0.01404551202634032880389725 2.470895543015410478204785
4.006874183819043366838741 -0.03363047772158710146950256 2.462413637487950168747375
4.143501142585479080082678 0.009033075298177758311046759 2.465531932712698548471053
4.137002285170957804893987 -0.0166666666666666664353702 2.473017680234567805541701
4.143501142585479080082678 -0.0243002580351555780291406 2.465531932712698548471053
4.122112815942681862679819 -0.01311227178988579392115987 2.487002285170958337801039
4.113722204128926307475922 -0.03344789029417755132911338 2.49350114258547916890052
4.113722204128926307475922 0.00722334671440596695624059 2.49350114258547916890052
4.130614042975301991589276 -0.03700228517095842384332371 2.46662943803891199223699
4.115724573747025161196689 -0.03700228517095842384332371 2.480614042975302524496328
4.115724573747025161196689 0.03700228517095842384332371 2.480614042975302524496328
4.130614042975302879767696 0.03700228517095843078221762 2.4666294380389124363262
4.157412969106573541466787 -0.03762775192161960796655151 2.456512247587743669186011
4.156512247587743402732485 -0.03762775192161960796655151 2.459194309318020188470655
4.156512247587743402732485 0.03762775192161971204996007 2.459194309318020188470655
4.157412969106573541466787 0.03762775192161971204996007 2.456512247587743669186011
4.15798756707684802336189 -0.03582630888396123869377163 2.456186124039190232792862
4.163272969597208827963186 -0.0148652236290082052222461 2.46237224807838028795004
4.15798756707684802336189 0.00609586162594474151310564 2.456186124039190232792862
4.162372248078380465585724 -0.01130254320611391062600948 2.465054309808656363145474
4.156186124039190410428546 0.00965854204883903610934226 2.461550247499742827272939
4.156186124039190410428546 -0.03226362846106695103642892 2.461550247499742827272939
4.038818880475465888935105 -0.01555054299760990667300664 2.511739181359061490184104
4.04440944023773329973892 0.006601670811190466815754352 2.50670668343132341249202
4.04440944023773329973892 -0.03770275680641017868044429 2.50670668343132341249202
4.042982417693164798322414 -0.03881888047546703385259903 2.506148621596794967558708
4.042982417693164798322414 0.03881888047546693670808438 2.506148621596794967558708
4.037391857930897387518598 -0.01666666666666676011043791 2.511181119524533045250791
4.041555395148596296905907 0.002631502052996046760180437 2.505590559762266522625396