# geometry NO_DATA 496
#  x  y  z
0.8495885202753125087227204 0.04738141293119527835964178 0.4477928926558828459647543
0.8491770405506249286275988 -0.01666666666666666296592325 0.4482792267409099751240831
0.8495885202753125087227204 0.01404807959786194201945442 0.4477928926558828459647543
0.8479209597762414896138239 0.01415450511789983698007767 0.4491770405506246843785334
0.847076358726545741717473 -0.01835586876605822120867018 0.4495885202753123199848062
0.847076358726545741717473 0.04666487900185790210771941 0.4495885202753123199848062
0.8488652425318665706299726 -0.04917704055062472462411804 0.4479674287221515616153056
0.8476091617574832426385001 -0.04917704055062472462411804 0.4488652425318662708697559
0.8476091617574832426385001 0.04917704055062473156301195 0.4488652425318662708697559
0.8488652425318665706299726 0.04917704055062473156301195 0.4479674287221515616153056
0.8953340209225491008737663 0.02966022472608796992088465 0.4343262038035387018197753
0.8906680418450982905653746 -0.01666666666666666990481716 0.435164133285593224265142
0.8953340209225491008737663 -0.003673108607245366419302712 0.4343262038035387573309265
0.875292260490424745000837 -0.01408489604268038826451193 0.4393771565331051620617586
0.8645824582132021207669936 0.007334708511765077043609296 0.4427522502985628549687647
0.8906131106277183073771653 -0.04066804184509842379213751 0.4351092020682131300546303
0.8632915729012090588767592 -0.0380862712211121404171088 0.4431453218008412631157
0.8739464439610516999223933 -0.04066804184509842379213751 0.4397152968180036425316359
0.8752373292730447618126277 0.0380862712211121334782149 0.4393222253157251788735493
0.8632366416838289646662474 0.04741822937601371246163495 0.4430903905834612244163395
0.8906131106277183073771653 0.04066804184509841685324361 0.4351092020682131300546303
0.8512908853119932617303789 0.04562260175658425925826478 0.4469134870685773641696414
0.8525817706239863236206133 0.01487103904723720455838265 0.4465204155662989560227061
0.8512908853119932617303789 -0.01588052366210983626371167 0.4469134870685773641696414
0.9474752227220948341823714 0.04063975152076543945200982 0.4431645287986703540816791
0.9449504454441897127736638 -0.01666666666666666296592325 0.442795098482477667012347
0.9474752227220948341823714 0.007306418187432103979184195 0.4431645287986703540816791
0.9328580514863142880699343 -0.007518121249084609714063987 0.4403761727353989741118312
0.9232904348063435406857025 0.01161711211085668729592335 0.4383266773045129127694963
0.9449794300862134344143328 -0.0449504454441900097583229 0.4428240831245012221195623
0.9187161620975526910015674 -0.03580190002660796344535754 0.4373970414537987627667803
0.9283127634195468269595608 -0.04495044544419002363611071 0.4394755215267083792163305
0.9328870361283376766436959 0.03580190002660797038425144 0.4404051573774224737078953
0.918745146739576079575329 0.04085145458241794258480439 0.4374260260958222623628444
0.9449794300862134344143328 0.04495044544419003057500461 0.4428240831245012221195623
0.9045742727087908718885956 0.02984363746340749912189239 0.434417910172198440399427
0.9091485454175819436173356 0.005658849547656217768287767 0.4353475460229127014244455
0.9045742727087908718885956 -0.01852593836809506358531685 0.4344179101721986069328807
0.9587812912760282912927323 -0.04009146727828714895647266 0.4488727585543155762515255
0.9560815078065405536733579 -0.009012616836322533131475865 0.447745517108631196911972
0.9587812912760282912927323 0.02206623360564208963241484 0.4488727585543155762515255
0.9549542663608561188226531 -0.04774551710863128572981395 0.4467174115926032529344525
0.954954266360856340867258 0.04774551710863129960760176 0.4467174115926032529344525
0.9511272414456843904417838 0.04343482318520670848460696 0.4445620646308910406396819
0.9522544828913686032478836 0.01235597274324208572071626 0.4455901701469189846172014
0.9511272414456841683971788 -0.01872287769872253704317444 0.4445620646308910406396819
0.7974004837045132187967056 0.03244909223606211312596059 0.4850486085315488526958916
0.7948009674090263931844902 -0.0166666666666666664353702 0.4886250298225441324184715
0.7974004837045132187967056 -0.0008842410972712220216043755 0.4850486085315488526958916
0.7876556272474710684861066 0.002375986343555708257824222 0.4948009674090263487755692
0.7831098033814023473553334 -0.02575831439880403930797748 0.4974004837045131743877846
0.7831098033814023473553334 0.03051028708591545582362592 0.4974004837045131743877846
0.7931608719380653926833702 -0.044800967409026407062278 0.4869849343515831874285027
0.7860155317765100679849866 -0.044800967409026407062278 0.4931608719380654037856004
0.7860155317765100679849866 0.0448009674090264209400658 0.4931608719380653482744492
0.7931608719380653926833702 0.044800967409026407062278 0.4869849343515832984508052
0.8268528206473112485141996 -0.04038537052358609491520269 0.4614422347550278247219069
0.8114422347550279690509001 -0.04038537052358609491520269 0.4719329638352123268418836
0.8114422347550279690509001 0.04038537052358609491520269 0.4719329638352123268418836
0.8268528206473112485141996 0.04038537052358609491520269 0.4614422347550278802330581
0.8356284865227735503268036 -0.009564198739019586295584396 0.4548073147382069025823625
0.8250252153686973288770901 0.01415450511789984044952462 0.4596146294764138495736461
0.8356284865227735503268036 0.03787320897481926545991016 0.4548073147382069025823625
0.809614629476413938391488 0.004314791493702362958073682 0.470105358556598407204774
0.8048073147382069914002045 0.02803349535062179057054443 0.475788772898575906822316
0.8048073147382069914002045 -0.01940391236321706291967359 0.475788772898575906822316
0.9932616830724474432656734 -0.002468101006883307614592216 0.4638375997574442077819867
0.9966308415362237216328367 0.02412691539889750408365288 0.4675677241235596248714046
0.9966308415362237216328367 -0.02906311741266412451700774 0.4675677241235596248714046
0.9837911997847289535812365 -0.04326168307244747379680661 0.4604684412936679294148234
0.9837911997847289535812365 0.04326168307244748767459441 0.4604684412936679294148234
0.9804220413209527862363757 -0.0166666666666666594964763 0.4567383169275525123254056
0.9709515580332344075742412 -0.01575093376387505517133292 0.4533691584637762339582423
0.9709515580332344075742412 0.01758239956945827769940749 0.4533691584637762339582423
1.033638256206250272128955 -0.0114771263761872938102826 0.4951153825824375354081042
1.024146054229468916219048 0.0120869721220211272239009 0.4902307651648750708162083
1.033638256206250272128955 0.03565107062022955519697831 0.4951153825824375354081042
1.019261436811906396116001 -0.0402307651648750874695537 0.4855479987456625678987621
1.019261436811906396116001 0.04023076516487509440844761 0.4855479987456625678987621
1.004884617417562520103047 0.02109599749132511428695302 0.4759806149088875448782687
1.009769234835125040206094 -0.002468101006883312385081775 0.4806633813281001033068662
1.004884617417562520103047 -0.02603219950509174165920179 0.4759806149088875448782687
0.7466047560201021227044293 0.02704989583386127605102445 0.5304451398137589590575658
0.7432095120402043564311612 -0.0166666666666666594964763 0.5351297039370327413010386
0.7466047560201021227044293 -0.006283437499472055084992483 0.5304451398137589590575658
0.7350143897296508299632478 0.0002764220455593255354465043 0.5432095120402042898177797
0.7302145113989949587463002 -0.02626642332797846438041667 0.5466047560201021671133503
0.7302145113989948477239977 0.02681926741909711198186272 0.5466047560201020560910479
0.7414866045625647661410085 -0.04320951204020444247344557 0.5334067964593930399885835
0.7332914822520111286507927 -0.04320951204020444247344557 0.5414866045625645885053245
0.7332914822520111286507927 0.04320951204020446329012728 0.5414866045625645885053245
0.7414866045625647661410085 0.04320951204020446329012728 0.5334067964593930399885835
0.7683512849531934918445586 -0.04302546212597456454229672 0.5088299584480822090881702
0.7588299584480822090881702 -0.04302546212597456454229672 0.5174168170115771570038987
0.7588299584480822090881702 0.04302546212597456454229672 0.5174168170115771570038987
0.7683512849531934918445586 0.04302546212597456454229672 0.5088299584480822090881702
0.7725299219472351319737413 -0.02398280911575219331854925 0.503487268937012677483267
0.7664958643791364156783175 0.002375986343555711727271174 0.506974537874025354966534
0.7725299219472351319737413 0.02873478180286361330364464 0.503487268937012677483267
0.756974537874025354966534 0.000507050460323486135161275 0.5155613964375205249268674
0.7534872689370125664609645 0.02686584591963138771153474 0.520660986064002795359329
0.7534872689370125664609645 -0.02585174499898441197176524 0.520660986064002795359329
1.04851641667075501374029 -0.01339266266208443030560904 0.5031205853315361409272555
1.049258208335377418052303 0.01845708734200378689505051 0.5040157956692047358515651
1.049258208335377418052303 -0.04524241266617264056737469 0.5040157956692047358515651
1.046968361063054686610485 -0.04851641667075488190130628 0.5023787936669136255929402
1.046968361063054686610485 0.04851641667075488884020018 0.5023787936669136255929402
1.046226569398432282298472 -0.0166666666666666594964763 0.5014835833292450306686305
1.044678513790731955168667 0.01060338879277601328854352 0.5007417916646225153343153
1.044678513790731955168667 0.04393672212610934268983698 0.5007417916646225153343153
1.086408735631678723621008 0.008163390972146125287856044 0.5260062931877276248826547
1.093204367815839406219425 0.02790545993715821959657575 0.5316256898229734240146627
1.093204367815839406219425 -0.01157867799286596555141671 0.5316256898229733129923602
1.067272114038205099717516 -0.03049351643553781590623153 0.5141967117398595910060521
1.080981171106801363990257 -0.03640873563167875553991948 0.5236541309611955075098422
1.057401079555698952816556 -0.04408478080385906661131656 0.5090380815579901296885623
1.057401079555699174861161 0.04408478080385906661131656 0.5090380815579901296885623
1.067272114038205099717516 0.03049351643553781937567848 0.5141967117398595910060521
1.080981171106801586034862 0.03640873563167876247881338 0.5236541309611955075098422
1.072699678563082681392871 -0.01075144747052573374057616 0.5165488739663917083788647
1.065786253678647099718546 0.003075402298345417898689513 0.5127108513803015910070826
1.055915219196140952817586 -0.01339266266208443550977947 0.5075522211984320186672903
1.052957609598070387590951 0.01402545147510796466616689 0.5062316136026526747215826
1.052957609598070387590951 -0.04081077679927683221627888 0.5062316136026526747215826
1.112983194662196639868057 -0.03514232520375769330822635 0.5481255198659541472139267
1.109303317532166932579685 -0.005557952138515777525118455 0.5462510397319084720635374
1.112983194662196639868057 0.02402642092672613652326596 0.5481255198659541472139267
1.107428837398121368451598 -0.04625103973190858308583984 0.5438738820186939104672774
1.107428837398121368451598 0.04625103973190858308583984 0.5438738820186939104672774
1.101874480134045874990534 0.0377477640373880402036022 0.5396222441714336737206281
1.103748960268091661163226 0.00816339097214612702257952 0.5419994018846481242945856
1.101874480134045874990534 -0.02142098209309578962789011 0.5396222441714335626983257
0.6972975241983612182394836 0.03014897210576182942642909 0.5828514479074005105729839
0.6945950483967223698655857 -0.01666666666666665602702935 0.5873720102512420826457173
0.6972975241983612182394836 -0.00318436122757150691375827 0.5828514479074005105729839
0.6884688226796354948433532 0.004414215232492781082473954 0.5945950483967226141146512
0.6850450727641872461504136 -0.02351416649756307708507563 0.5972975241983613514662466
0.6850450727641872461504136 0.03234259696254863231112964 0.5972975241983613514662466
0.6930433488928635643588905 -0.04459504839672251419457893 0.5858203107473833881613245
0.6869171231757766893366579 -0.04459504839672251419457893 0.5930433488928638086079559
0.6869171231757766893366579 0.04459504839672252807236674 0.5930433488928638086079559
0.6930433488928637864034954 0.04459504839672252807236674 0.5858203107473833881613245
0.717160373388547434103657 -0.0431308165213589861375354 0.5586888290324342198900354
0.7086888290324343531167983 -0.0431308165213589861375354 0.568132457553620628942781
0.7086888290324343531167983 0.04313081652135900695421711 0.568132457553620628942781
0.717160373388547434103657 0.04313081652135900695421711 0.5586888290324342198900354
0.7203776804515464871059294 -0.02618772780913300457505954 0.553434591739320413950054
0.7153407278347538866825062 0.0002764220455593278122710665 0.5568691834786408945134895
0.7203776804515464871059294 0.02674057190025165911539951 0.5534345917393203029277515
0.7068691834786410277402524 0.002220590375705968656794287 0.5663128119998271925439326
0.7034345917393205471768169 0.0286847402303982978999386 0.5723218487816930100109403
0.7034345917393204361545145 -0.02424355947898636579052045 0.5723218487816930100109403
1.142551485123344257033295 1.960076498832193442269263e-05 0.5657916485924834315568432
1.146275742561672306152332 0.02590441922166570459795665 0.5704105248699830044145642
1.146275742561672306152332 -0.02586521769168906303981714 0.5704105248699830044145642
1.135163433159080970114019 -0.04255148512334404331536319 0.562067391154155382437807
1.135163433159080970114019 0.042551485123344057193151 0.562067391154155382437807
1.131439175720752920994983 -0.01666666666666666296592325 0.5574485148766559206023885
1.124051123756489634075706 -0.01300646701517172224016328 0.5537242574383278714833523
1.124051123756489634075706 0.02032686631816161063057713 0.5537242574383278714833523
1.174339788426220332340222 -0.02190973865794875602430736 0.596249527084169228530186
1.167795603586856412192674 0.003922648843722947344103691 0.5924990541683383682425301
1.174339788426220332340222 0.02975503634539464897779126 0.596249527084169228530186
1.164045130671025773949623 -0.04249905416833836546697256 0.5879259941333300210075663
1.164045130671025773949623 0.04249905416833837934476037 0.5879259941333300210075663
1.153750472915830993514419 0.02585198826666002328011906 0.5796024611824908134849466
1.157500945831661853802075 1.960076498831962032868073e-05 0.5841755212174991607199104
1.153750472915830993514419 -0.02581278673668338519142651 0.5796024611824908134849466
0.6533839811057802204885547 -0.04547599595110006498455135 0.6488599770568803659642754
0.6534020249675694946844828 -0.01442270850400594918439001 0.6477199541137608207463927
0.6533839811057802204885547 0.01663057894308817355466523 0.6488599770568803659642754
0.672466042279928566394176 -0.03989333188247538852788665 0.6119256013303490115973204
0.6630656242734684902018216 -0.03761328599623618013092496 0.6274522450538960738342098
0.6591342692960364679777285 -0.04771995411376078743970197 0.6390655776618003880429342
0.6630656242734684902018216 0.03761328599623618706981887 0.6274522450538959628119073
0.6591342692960364679777285 0.04771995411376079437859588 0.6390655776618003880429342
0.672466042279928566394176 0.03989333188247538852788665 0.6119256013303490115973204
0.6761342159579216692932846 -0.01881244998331594447948945 0.6050533340587623820638896
0.6706471090671042301067928 0.004414215232492775010941788 0.6101066681175246753099373
0.6761342159579216692932846 0.02764088044830149970554345 0.6050533340587623820638896
0.6612466910606441539144384 0.01438662078042746150785547 0.6256333118410717375468266
0.6573333799450014058862735 -0.006559998549142056524507982 0.6361066215058565065376683
1.195560335827045017609294 -0.005916271517386779976721556 0.6098148617475949162525239
1.197780167913522486600186 0.02297739764299154899274136 0.6129702272357575587591327
1.197780167913522486600186 -0.03480994067776511241563142 0.6129702272357575587591327
1.191408159002050659580618 -0.04556033582704499540483312 0.6075950296611175582839337
1.191408159002050659580618 0.04556033582704499540483312 0.6075950296611175582839337
1.189188326915572968545121 -0.0166666666666666664353702 0.6044396641729551378219298
1.185036150090578610516445 -0.0005170153292320619781846647 0.6022198320864775578087347
1.185036150090578610516445 0.03281631800410127197675791 0.6022198320864775578087347
1.231832738304591279288047 -0.01279680780341720114368087 0.6446295461080084887584007
1.223972049990282862097501 0.009795617745933328512908389 0.6392590922160171773569459
1.231832738304591501332652 0.03238804329528386510839155 0.6446295461080084887584007
1.218601596098291217629139 -0.03925909221601719956140641 0.6333380770159818817788278
1.218601596098291439673744 0.03925909221601719956140641 0.6333380770159818817788278
1.205370453891991378014836 0.01667615403196375314931466 0.6220466079239551637769523
1.210740907783982800438594 -0.005916271517386780844083294 0.627967623123990348332768
1.205370453891991378014836 -0.02850869706673731657220472 0.6220466079239552747992548
0.6481540615146935691015528 0.02280481192668126072531365 0.6746507504119876319492732
0.6463081230293872270209476 -0.0166666666666666525575824 0.6845564674780343361604196
0.6481540615146935691015528 -0.01052852140665206694125633 0.6746507504119875209269708
0.6437625556368579138322161 0.01157553188160792730088122 0.6963081230293873824521711
0.6430629267296349427240898 -0.01806592448111274396005399 0.6981540615146936135104738
0.6430629267296349427240898 0.04121698824432859509236948 0.6981540615146937245327763
0.6458615913892867821388677 -0.04630812302938731861434718 0.6841099358379336692337347
0.6433160239967574689501362 -0.04630812302938731861434718 0.6958615913892867155254862
0.6433160239967574689501362 0.04630812302938733943102889 0.6958615913892868265477887
0.6458615913892866711165652 0.04630812302938733943102889 0.6841099358379338912783396
0.6526957510682900309717525 -0.04884933888322965517270191 0.6515737719869597599497979
0.6515737719869596489274954 -0.04884933888322965517270191 0.6564887831022734321351209
0.6515737719869596489274954 0.04884933888322965517270191 0.6564887831022734321351209
0.6526957510682900309717525 0.04884933888322965517270191 0.6515737719869597599497979
0.6528192887210457762137139 -0.0466053807205689396564452 0.6505753305583851231475023
0.6522726401981006061348012 -0.01442270850400594744966654 0.6511506611167703351128466
0.6528192887210457762137139 0.01775996371255704475711212 0.6505753305583851231475023
0.6511506611167702240905442 -0.006836644436039406198812873 0.6560656722320838962758671
0.6505753305583850121251999 0.02534602778052358340588057 0.6604053527890123564958458
0.6505753305583850121251999 -0.03901931665260240100767675 0.6604053527890123564958458
1.247478857051812495271292 -0.01036229353968924106477179 0.6556733295116757842535549
1.248739428525905914568739 0.02044989684545700861506567 0.6575649446010709553434026
1.248739428525906136613344 -0.04117448392483549768350315 0.6575649446010709553434026
1.245303904065539368772875 -0.04747885705181291438048419 0.654412758037582253933806
1.245303904065539368772875 0.047478857051812928258272 0.654412758037582253933806
1.244043332591445949475428 -0.01666666666666666296592325 0.6525211429481870828439583
1.241868379605172822977011 0.007274474797746247056728919 0.6512605714740935525242094
1.241868379605172822977011 0.04060780813107958686636323 0.6512605714740934415019069
1.282839520196454197176195 -0.01047857939860775272622462 0.6933180995950621872125907
1.276442610705633473600074 0.009490953124849908079108118 0.6866361991901241967894975
1.282839520196454197176195 0.02946048564830757582333476 0.6933180995950621872125907
1.269760710300695816243888 -0.03663619919012432724070294 0.6798036194918841701451129
1.269760710300695816243888 0.03663619919012432724070294 0.6798036194918841701451129
1.256681900404937435311581 0.009607238983768418005837475 0.6662891393887062640999375
1.263363800809875314712372 -0.01036229353968924973838917 0.6731217190869465127889271
1.256681900404937657356186 -0.0303318260631469105437219 0.6662891393887062640999375
0.6463890619539500725920789 0.0125153391124494892810981 0.7182019409356078520900724
0.6481945309769749918871184 0.04223773439973300264371758 0.7309874748021411017262494
0.6481945309769749918871184 -0.01720705617483401367318052 0.730987474802140990703947
0.6456489635844456786983869 -0.0463890619539501641854784 0.7163964719125829327950328
0.6456489635844456786983869 0.04638906195395017806326621 0.7163964719125830438173352
0.6438434945614207594033473 -0.01666666666666666990481716 0.7036109380460496831588557
0.6431033961919163655096554 0.00796459383555808871080206 0.7018054690230248748861186
0.6431033961919163655096554 0.04129792716889142678571289 0.7018054690230248748861186
0.6509891868257382530060795 -0.04880034551989885505118849 0.7497895323456372773662792
0.6508102948944132215558511 -0.01588794749529093969231397 0.7495790646912745547325585
0.6509891868257382530060795 0.01702445052931697566656055 0.7497895323456372773662792
0.6505998272400503878998279 -0.04957906469127457832479777 0.7477138685685285057758165
0.6505998272400503878998279 0.04957906469127458526369168 0.7477138685685287278204214
0.6502104676543625227935763 0.04542773713705740290524915 0.7456382047914200672522611
0.6504209353087252454272971 0.01251533911244949448526853 0.7475034009141660051867007
0.6502104676543625227935763 -0.02039705891215842087360599 0.7456382047914200672522611
1.297134363553106517485958 0.0002723847220546757883288813 0.7113351621412543623890201
1.298567181776553169925137 0.03074008160849438578421378 0.718371869612168145735609
1.298567181776553169925137 -0.03019531216438503876120514 0.718371869612168145735609
1.294979325005644721358067 -0.04713436355310637870807966 0.7099023439178075989275385
1.294979325005644721358067 0.04713436355310638564697356 0.7099023439178075989275385
1.293546506782198068918888 -0.01666666666666666296592325 0.7028656364468937045586472
1.291391468234736494835602 0.006625316677956291817885859 0.7014328182234469410971656
1.291391468234736494835602 0.03995865001128962729071148 0.7014328182234468300748631
1.308289760174366822553793 -0.03949217639082631958746816 0.7477819365651933170013876
1.307471975239393069401217 -0.01059496992710616709854055 0.7455638731303866340027753
1.308289760174366822553793 0.01830223653661398885983402 0.7477819365651933170013876
1.305253911804586497424907 -0.04556387313038682412846825 0.7395847955928873673769885
1.305253911804586497424907 0.04556387313038682412846825 0.7395847955928873673769885
1.302218063434806172296021 0.02916959118577482426570846 0.731387654620581306730287
1.304436126869612744272331 0.0002723847220546711804696483 0.7373667321580806843783762
1.302218063434806172296021 -0.02862482174166548765104068 0.731387654620581306730287
0.6709929653687926043303946 -0.02492612707046847411729296 0.7959190924392611776738704
0.6666178440255046133700034 0.0002453911413871391611341011 0.7918381848785221999165174
0.6709929653687926043303946 0.02541690935324274550066725 0.7959190924392611776738704
0.6514387198801716571949783 -0.04933163155184086545723687 0.7510493602944838809065686
0.6551302678552226588237772 -0.04116981643036313198713572 0.7636351194004117326485925
0.6632521125351700241878916 -0.0418381848785222693054564 0.7799676018429987367497347
0.6551302678552226588237772 0.04116981643036314586492352 0.7636351194004117326485925
0.6632521125351700241878916 0.04183818487852228318324421 0.7799676018429988477720372
0.6514387198801716571949783 0.04933163155184087239613078 0.7510493602944838809065686
0.6511129033954552447482911 -0.04855291238046513524473369 0.7503341842240796033536299
0.6510577280338468719733669 -0.01588794749529093275342007 0.7506683684481592067072597
0.6511129033954552447482911 0.0167770173898832593295527 0.7503341842240796033536299
0.6547492760088978736021659 0.008504851545188953781950758 0.7632541275540869474269812
0.6584959993455572480058891 -0.01599829821850751523926171 0.7755057024359351958153752
1.298460279387718019350473 0.0292484985116205353783414 0.7807882191239023939033359
1.29692055877543621633663 -0.0166666666666666664353702 0.7880845286435285146353635
1.298460279387718019350473 -0.004084834821712806166016385 0.7807882191239023939033359
1.293296178253835471139155 0.009417905623464634806696338 0.7969205587754364383812344
1.291211518344516306910919 -0.02083598648530509203635752 0.7984602793877183524173802
1.291211518344516306910919 0.03967179773223435818030325 0.7984602793877182413950777
1.295641158459954311865658 -0.04692055877543638980897711 0.7868051283280466101643924
1.292016777938353344623579 -0.04692055877543638980897711 0.7956411584599544228879608
1.292016777938353344623579 0.04692055877543639674787102 0.7956411584599545339102633
1.295641158459954311865658 0.04692055877543639674787102 0.7868051283280466101643924
1.307688131157036748319911 -0.04602964805495216027431127 0.7546522827872564898044061
1.30465228278725664523563 -0.04602964805495216027431127 0.7624829193220152845356097
1.304652282787256423191025 0.04602964805495216027431127 0.7624829193220152845356097
1.307688131157036970364516 0.04602964805495216027431127 0.7546522827872564898044061
1.308056872712084484078332 -0.03995795131539165573331118 0.7519851759725240114562439
1.30700620031482817040569 -0.01059496992710616536381707 0.7539703519450478008678829
1.308056872712084484078332 0.01876801146117932153623009 0.7519851759725240114562439
1.303970351945047845276804 -0.001005393597149193633116804 0.7618009884798065955990864
1.30198517597252383382056 0.02835758779113629196588775 0.7676464490420414898963486
1.30198517597252383382056 -0.03036837498543468183420657 0.7676464490420414898963486
0.6918535847230883328862205 0.004008887503958070627763099 0.8184841923622242498836954
0.695926792361544199749801 0.02919580556037957089210444 0.824748761809080521700821
0.6959267923615440887274985 -0.02117803055246342963657824 0.824748761809080521700821
0.6877161545989043389681683 -0.04185358472308817190388197 0.81441098472376816097551
0.6877161545989044499904708 0.04185358472308817190388197 0.8144109847237683830201149
0.6836429469604485831268903 -0.0166666666666666664353702 0.8081464152769118891583844
0.6795055168362644781865356 -0.007901024135524705588329297 0.8040732076384560222948039
0.6795055168362647002311405 0.02543230919780863422130501 0.8040732076384560222948039
0.71331116606003341917841 -0.0344432853904644079023889 0.8477544514504976591595664
0.7100239058542699988052505 -0.005601049156135346276941256 0.8455089029009955625681982
0.7133111660600335302007124 0.02324118707819372575684724 0.8477544514504977701818689
0.7077783573047679022138823 -0.04550890290099574020388218 0.8414255618691435234524079
0.7077783573047679022138823 0.04550890290099574020388218 0.8414255618691435234524079
0.7022455485495020521824472 0.03285112373828713572265769 0.8350966722877891657006444
0.7044910970990043708184203 0.004008887503958062821507458 0.8391800133196413158387372
0.7022455485495022742270521 -0.02483334873037100487547235 0.8350966722877891657006444
1.24898180600322294964144 0.04243872418206511010208004 0.8434569181788422742584999
1.24796361200644589928288 -0.01666666666666667684371106 0.8452011680942553839557263
1.24898180600322294964144 0.009105390848731773761892683 0.8434569181788422742584999
1.244397459568242547689465 0.009534361790260004881902844 0.8479636120064457660561175
1.241849501126816246454609 -0.02176258354951903298268867 0.8489818060032228164146773
1.241849501126816246454609 0.04083130713003905315483522 0.8489818060032228164146773
1.247018512383753829908528 -0.04796361200644572164719648 0.8442560684715636476482814
1.243452359945550478315113 -0.04796361200644572164719648 0.8470185123837539187263701
1.243452359945550478315113 0.04796361200644570776940867 0.8470185123837536966817652
1.247018512383754051953133 0.04796361200644570776940867 0.8442560684715634256036765
1.278075972956353334453183 -0.03565450811528441538156287 0.815033686811287516604807
1.265033686811287694240491 -0.03565450811528442232045677 0.8289379095657639640037928
1.265033686811287694240491 0.03565450811528440844266896 0.8289379095657639640037928
1.278075972956353334453183 0.03565450811528440844266896 0.8150336868112877386494119
1.283257318232489119225193 -0.009569935825153117608943276 0.8071727459423577721864262
1.277387778029781317812308 0.009417905623464617459461579 0.8143454918847154999639315
1.283257318232489119225193 0.02840574707208236987510119 0.8071727459423577721864262
1.264345491884715677599615 0.01114177884228605835970072 0.8282497146391918363406148
1.257172745942357838799808 0.03012962029090381424478728 0.8349811914513104449397929
1.257172745942357838799808 -0.007846062606331680178151089 0.8349811914513104449397929
0.7399746053908105025698205 0.006131396063799821223583297 0.8714244259744226006603185
0.7449873026954052512849103 0.02943933478794371130793373 0.8778107600350610884021307
0.7449873026954052512849103 -0.01717654266034406712604365 0.8778107600350610884021307
0.7338534447840042718169684 -0.03997460539081054697874151 0.8664117286698278519452288
0.7338534447840042718169684 0.03997460539081056085652932 0.8664117286698278519452288
0.7288407474794095231018787 -0.01666666666666666296592325 0.8600253946091893642034165
0.7227195868726031813267241 -0.01562644376532478299179907 0.8550126973045945044660243
0.7227195868726032923490266 0.01770688956800855334838829 0.8550126973045946154883268
0.7629465531299324254632666 -0.03498231604165755181945485 0.8979288691715897607892316
0.7595799728075812717875692 -0.005791244365144351466390127 0.8958577383431798324409101
0.7629465531299324254632666 0.02339982731136885235612155 0.8979288691715897607892316
0.7575088419791711213946428 -0.0458577383431798685231584 0.892661233870156500813664
0.7575088419791713434392477 0.0458577383431798685231584 0.8926612338701562787690591
0.752071130828410039370624 0.03532246774031301550511586 0.8873935985687229077711891
0.7541422616568201897635504 0.006131396063799811682604179 0.8905901030417462393984351
0.7520711308284099283483215 -0.02305967561271338173156664 0.8873935985687229077711891