# geometry NO_DATA 416
#  x  y  z
0.8450934185864095171680788 0.03804666296095116778674949 0.5429532443745412884084089
0.8401868371728191675629205 -0.01666666666666658663809031 0.5391167500668849754674739
0.8450934185864095171680788 0.004713329627617841854902991 0.5429532443745412884084089
0.8383335989930738030295743 0.01296019030717597553259424 0.5401868371728191231539995
0.8413869422269186770790839 -0.01055998019897673445566255 0.5450934185864093617368553
0.8413869422269188991236888 0.03648036081332860919301808 0.5450934185864094727591578
0.8447952196162786808741885 -0.0401868371728192966263471 0.5437251325103444887787418
0.8429419814365332053185398 -0.0401868371728192966263471 0.5447952196162786364652675
0.8429419814365333163408422 0.04018683717281937295418004 0.5447952196162786364652675
0.8447952196162786808741885 0.04018683717281937295418004 0.5437251325103444887787418
0.887015437076703383567633 0.009032405313254998624472591 0.5258340989132572751429961
0.8935077185383516473748955 0.02938117572329184551405135 0.5321913534415698698865071
0.8935077185383516473748955 -0.01131636509678185520400007 0.5321913534415697588642047
0.8828939655094414362679345 -0.02182652495145762441830506 0.5292118617660711565875431
0.8919661761134851651888766 -0.0370154370767035029166081 0.5344669416934090255821843
0.8727195803044229815981225 -0.03481108787475411386891366 0.5383161598651554635708294
0.8727195803044229815981225 0.03481108787475411386891366 0.5383161598651554635708294
0.8828939655094414362679345 0.02182652495145763829609287 0.5292118617660711565875431
0.8919661761134851651888766 0.03701543707670352373328981 0.5344669416934091366044868
0.8779432264726596546466908 -0.001477754541420769939311097 0.5205790189859192951260525
0.8753632973302641895330112 0.003682103743370187393102455 0.5216811935868939098526198
0.8651889121252458458855017 0.01452649245479845779849271 0.5307854916859782168359061
0.8575944560626229673516718 0.03267091366288590870148312 0.5387876151840879090926251
0.8575944560626227453070669 -0.003617928753288986599284671 0.5387876151840879090926251
0.934850964849990306859695 0.0148068002418153630422859 0.5308857686042501855538944
0.9424254824249953532699919 0.0329910984251393507582506 0.5390479844834865641445276
0.9424254824249952422476895 -0.00337749794150861426533794 0.5390479844834865641445276
0.9303143366968757987933714 -0.02149197183663290738886431 0.5287967051802184847986155
0.9403015068568635337342698 -0.03485096484999064547771752 0.5378539421277805931964622
0.9212221876052137936596864 -0.03664100698664226468670435 0.5340717235951746300059995
0.9212221876052137936596864 0.03664100698664228550338606 0.5340717235951746300059995
0.9303143366968757987933714 0.02149197183663292820554602 0.528796705180218373776313
0.9403015068568635337342698 0.03485096484999065241661143 0.5378539421277805931964622
0.9248637946900025719187965 -0.00330767365330893398436829 0.5218285316566879661337452
0.9224511421050194392989852 0.001517631516657324966881881 0.5209335105883622363265317
0.9133589930133575451876027 0.009032405313254998624472591 0.5262085290033184925562182
0.9066794965066786726737291 0.02900674563323060034525369 0.5323785684866004785931182
0.9066794965066786726737291 -0.01094193500672061176992589 0.5323785684866003675708157
0.9582826672172359838697275 -0.03897671323031177970097616 0.5472593804475476275683832
0.9582522629372963729466051 -0.01112461900188309316117596 0.5445187608950953217501478
0.9582826672172359838697275 0.01672747522654569052313889 0.5472593804475476275683832
0.9555116433848440671283697 -0.0445187608950954397113442 0.546329447235121890003029
0.9555116433848441781506722 0.04451876089509536338351126 0.546329447235121890003029
0.9527406195524523724316168 0.04265889447024405478625653 0.5453995140226962634599772
0.9554812391049045672275497 0.01480680024181527804083558 0.5435888276826695841847936
0.9527406195524523724316168 -0.01304529398661341023368809 0.5453995140226963744822797
0.7835082547125187257819334 0.01216439865726572956694529 0.5809072779494474092487621
0.7917541273562593850954272 0.02900598670311786697606493 0.5870769379676730181927269
0.7917541273562594961177297 -0.004677189388586411311621305 0.5870769379676731292150293
0.7871901731131154544840456 -0.004561500948397292573566197 0.5917516740615128556513014
0.78096757546428841045838 0.01227518050796156702519912 0.5835033481230255114624583
0.7871901731131154544840456 0.02911186196432042488924097 0.5917516740615127446289989
0.7829868969807832757012989 -0.01687075233918804498256527 0.5828119756015979202601329
0.7913348124607846312272841 -0.03350825471251880904866027 0.5889087570768987145441997
0.7828144288963444497042587 -0.01686584574969476543748748 0.582984443686036746257173
0.7889666012969933639453757 -0.03350334812302552950358248 0.5913323591660379907608558
0.7828144288963444497042587 0.01686584574969476890693443 0.582984443686036746257173
0.7889666012969931419007708 0.03350334812302552950358248 0.5913323591660379907608558
0.7829868969807832757012989 0.01687075233918804845201223 0.5828119756015979202601329
0.7913348124607845202049816 0.03350825471251880904866027 0.5889087570768987145441997
0.7751603392325173702559482 -2.916429333590601829314e-05 0.5748104964741466149646953
0.7750582963962566740434568 0.0001749213791854716513757967 0.5748833750170714296245933
0.7748858283118178480464167 0.0001700147896921925399788683 0.5750558431015102556216334
0.774815403063639718261868 -2.916429333590415820878783e-05 0.5751554326430242669587756
0.8355565188793065978245522 -0.03616513804311790453160924 0.570743090392385243880824
0.8207430903923853549031264 -0.03616513804311791147050315 0.5851586230543515121382825
0.8207430903923853549031264 0.03616513804311790453160924 0.5851586230543515121382825
0.8355565188793065978245522 0.03616513804311790453160924 0.5707430903923851328585215
0.8365442879522835273320425 -0.006538281069275337156754269 0.5569174309784409304668884
0.8286482904438035035354915 0.01296019030717589920476129 0.5638348619568820385694607
0.8365442879522835273320425 0.03245866168362713383155338 0.5569174309784409304668884
0.8138348619568822606140657 0.01216439865726572783222181 0.5782503946188484178492217
0.8069174309784410414891909 0.0316628700337169693979078 0.5857484963023735780041079
0.8069174309784410414891909 -0.007334072719185515468187653 0.5857484963023735780041079
0.9882491145930851761391978 0.007369445874723833805886031 0.5737689416776098338957013
0.9941245572965425880695989 0.02895189380114240179642238 0.5799115552448477206581856
0.9941245572965425880695989 -0.01421300205169477061384331 0.5799115552448478316804881
0.9802289144622676753115798 -0.03824911459308523442590655 0.5678934989741525329876026
0.9802289144622677863338822 0.03824911459308527605926997 0.5678934989741524219653002
0.9743534717588104854257836 -0.01666666666666662827145373 0.5617508854069145352028158
0.9663332716279928735758631 -0.02287550440879773661073671 0.5558754427034571232724147
0.966333271627993095620468 0.0104578289245356031988976 0.5558754427034571232724147
1.031639258151576310496012 0.0120228704845021863722998 0.5803836123329260132663876
1.037336781939164787047503 -0.0006278229093254945620411478 0.5867089590298397716594536
1.042157535513401400706357 0.01026933005779802343671037 0.5953562038178357163076271
1.04128076530004953781372 -0.01842020709337083284040659 0.597678101908918013585037
1.041280765300049315769115 0.03895886720896706012506883 0.5976781019089179025627345
1.029724154994999141266021 -0.01585307679765710769936859 0.5790963320856740148556696
1.021076910207003196617848 -0.03189192055499845412924742 0.583094966477698539719654
1.027812766937817201551297 -0.04535620381783570659317562 0.5930294915129465938008479
1.021076910207002974573243 0.03189192055499830147358153 0.5830949664776983176750491
1.027812766937816757462087 0.04535620381783553312082802 0.593029491512946371756243
1.029724154994998919221416 0.0158530767976569411659149 0.5790963320856739038333671
1.024026631207410442669925 -0.003202383403829426548187209 0.5727709853887601454403011
1.02211152805083305139533 0.000627822909325331498034406 0.5714837051415080360072807
1.013464283262837106747156 0.007369445874723817326013009 0.5754823395335324498489626
1.006732141631418553373578 0.02723849594521990727380434 0.5807682541728089731236651
1.006732141631418553373578 -0.01249960419577229343846003 0.58076825417280919516827
0.7474251828797422447792087 0.04227097611848897040776052 0.6448457932387465785240011
0.7448503657594846005807199 -0.01666666666666666296592325 0.6435606709389867230441951
0.7474251828797422447792087 0.008937642785155637537020112 0.6448457932387465785240011
0.7442385660266666036477545 0.01544306720103043491232331 0.6448503657594845117628779
0.7462015834141061398909756 -0.01274063189178752455998911 0.6474251828797421559613667
0.7462015834141061398909756 0.04362676629384838744574182 0.6474251828797421559613667
0.7472191128244063396124375 -0.04485036575948462417295914 0.6459294180039085730982151
0.7466073130915884537017746 -0.04485036575948462417295914 0.647219112824406361816898
0.7466073130915884537017746 0.04485036575948462417295914 0.647219112824406361816898
0.7472191128244065616570424 0.04485036575948462417295914 0.6459294180039085730982151
0.7853244759781820016897314 -0.03608559440118417477316726 0.6208535523908678133153671
0.7708535523908677244975252 -0.03608559440118417477316726 0.6362305242370365210291538
0.7708535523908677244975252 0.03608559440118418171206116 0.6362305242370366320514563
0.7853244759781820016897314 0.03608559440118418865095506 0.6208535523908678133153671
0.7858990499740362567493435 -0.007143747226555948251491834 0.6069572027994079022050755
0.7783853291861300149889757 0.01227518050796157222936955 0.6139144055988158266146115
0.7858990499740362567493435 0.03169410824247908403661356 0.6069572027994079022050755
0.763914405598815848819072 0.01408727702567101267017158 0.6292913774449846453507007
0.756957202799407924409536 0.03350620476018852100796863 0.6377111464917455396772539
0.756957202799407924409536 -0.00533165070884650260651938 0.6377111464917455396772539
1.047139780047188883926879 -0.01082516884006080870594957 0.6057809688661139890797358
1.048569890023594242123295 0.01964794454046165858573936 0.6072716078030115927077759
1.0485698900235944641679 -0.04129828222058314068920737 0.6072716078030115927077759
1.045371221719160415020156 -0.04713978004718913372705913 0.6043508588897086308833195
1.045371221719160192975551 0.04713978004718900882696886 0.6043508588897086308833195
1.043941111742755056823739 -0.01666666666666679480490743 0.6028602199528110272552794
1.042172553414726143827806 0.007409110104987204695192737 0.6014301099764055580365607
1.042172553414726143827806 0.04074244343832054277010357 0.6014301099764055580365607
1.08532035095325407603184 0.01413687592787129555793602 0.6300814203440149308121931
1.092660175476626971402538 0.03279056021445875268582881 0.6381433671179108646498435
1.092660175476626971402538 -0.004516808358716161569956782 0.6381433671179108646498435
1.065564943815971776786 -0.03214934290062840260837618 0.6135779261960513375484538
1.080646106456325750144742 -0.03532035095325411488964562 0.627394193467007532660773
1.056238101672678286746532 -0.04682899194737429049428812 0.609158850585981515024514
1.056238101672678286746532 0.04682899194737416559419785 0.6091588505859817370691189
1.06556494381597222087521 0.03214934290062827770828591 0.6135779261960516706153612
1.080646106456325972189347 0.03532035095325412876743343 0.6273941934670076436830755
1.070239188312900324717702 -0.01349565861404095068465381 0.6162651530730589577444789
1.062497850195919468774264 0.001987017619920652348325385 0.610510832575998918514415
1.053171008052625534645586 -0.01082516884006081737956695 0.6060917569659288739458702
1.051585504026312678504951 0.01933715644064681188352139 0.6074270018529190906519943
1.051585504026312678504951 -0.04098749412076830439533026 0.6074270018529190906519943
1.108427256387291670591821 -0.03800012121525782327058351 0.6464273776025495354957684
1.109572561789821776301324 -0.01181203267682540136718217 0.6428547552050991598093788
1.108427256387291670591821 0.01437605586160693726949233 0.6464273776025495354957684
1.105999939392371178570329 -0.04285475520509900160259775 0.6451624822331518682716478
1.105999939392370956525724 0.04285475520509909874711241 0.6451624822331518682716478
1.103572622397450464504232 0.04032496446630370878771998 0.6438975868637540900252247
1.107145244794901062235226 0.01413687592787137362049243 0.6415898598357012705406532
1.103572622397450686548837 -0.01205121261056104828290891 0.6438975868637540900252247
0.7369845309669582622547068 -0.005475436158627198374171385 0.6924599671255855515283884
0.7298023147951007150169289 0.01277783142587740963791454 0.6849199342511711474656977
0.7369845309669582622547068 0.03103109901038201418055351 0.6924599671255855515283884
0.7394915905088705887493461 -0.03423267209265540289564456 0.6734367235750220448409209
0.7309767564494364933125325 -0.01915260634382668497588398 0.6825633573672744702776072
0.7378153415420360961007873 -0.03491993425117127097800918 0.6913463600802689512647703
0.730976756449436604334835 0.01915260634382668150643703 0.6825633573672744702776072
0.7378153415420363181453922 0.03491993425117127097800918 0.6913463600802689512647703
0.739491590508870810793951 0.03423267209265540289564456 0.6734367235750220448409209
0.7399933978213694141246037 -0.002122938224958306752121473 0.6578836639536721486720694
0.7318221948411931521150109 0.01544306720103042970815288 0.6657673279073443861619808
0.7399933978213694141246037 0.03300907262701917310732114 0.6578836639536721486720694
0.7233073607817588346335924 0.001586600917837938107268769 0.674893961699596811598667
0.7229637297025008901840692 -0.0008993387593220750122341434 0.6761369315381768885231395
1.137248915910550106644905 0.009968621812972398160690446 0.6760687283292694527148115
1.143624457955275008913532 0.03055087105685569404123214 0.6830108305243639543746781
1.143624457955275008913532 -0.0106136274309108942504043 0.6830108305243639543746781
1.129385108283528893480252 -0.03724891591054995537701799 0.6696931862845444394238825
1.129385108283529115524857 0.0372489159105499692548058 0.6696931862845444394238825
1.123009566238803991211626 -0.01666666666666666296592325 0.6627510840894499377640159
1.115145758611782778046972 -0.02456311676627552856300163 0.6563755420447250354953894
1.115145758611782778046972 0.008770216567057811246632681 0.656375542044724924473087
1.176006009740384161688098 0.001705100620001277289886077 0.6756990908796169925665254
1.176781830335192902126096 -0.0001534594303836186589447277 0.6766283709048093175653094
1.173513287894046408510462 -0.006383625451909452977461434 0.6850384339533344135730886
1.169468924858091174456831 -0.02475539273857739822060076 0.6925192169766671845820838
1.169468924858091174456831 0.01198814183475849400040136 0.6925192169766671845820838
1.17542624658413741300933 -0.002864626932494737134027307 0.6752727871537538284485436
1.167016183535612317001551 -0.01937783416877778344677985 0.6803338277754316099077414
1.164327404250712572064685 -0.035038433953334613413233 0.6891701945498198700335024
1.167016183535612317001551 0.0193778341687777869162268 0.6803338277754318319523463
1.164327404250712572064685 0.035038433953334613413233 0.6891701945498198700335024
1.175426246584137190964725 0.002864626932494736700346438 0.6752727871537538284485436
1.174650425989328450526727 -0.001006066882109841239406611 0.6743435071285613924274571
1.174070662833081701847959 0.0001534594303836177915829897 0.6739172034026982283094753
1.16566059978455660584018 0.009968621812972391221796542 0.6789782440243762318132781
1.157830299892278258511169 0.02764135536174890453442465 0.6844655883719173994350626
1.157830299892278258511169 -0.007704111735804113417214189 0.6844655883719173994350626
0.7399529206016027815806524 -0.002131190683341803969452766 0.7420841112849445586618913
0.7318502933733844750818776 0.01537036521988075984945787 0.7341682225698891173237826
0.7399529206016026705583499 0.03287192112310331759683635 0.7420841112849445586618913
0.7379860427523612376177198 -0.03468755503450757227135171 0.7232637937060895083618561
0.7311796824211447276553599 -0.01885577760439679367854282 0.7320145716577004524339145
0.7395419758816723643235491 -0.03416822256988921724385477 0.7410250158416210597422946
0.7311796824211446166330575 0.01885577760439682837301234 0.7320145716577004524339145
0.7395419758816721422789442 0.03416822256988923806053648 0.7410250158416209487199922
0.7379860427523612376177198 0.03468755503450759308803342 0.7232637937060891752949487
0.7371007205752901914053155 -0.005243056941963499667513915 0.7076562224827461777820758
0.7300346940117643512735413 0.01277783142587742351570235 0.7153124449654921779284678
0.7371007205752901914053155 0.0307987197937183328211308 0.7076562224827461777820758
0.7232283336805476192665765 0.0008348892365559187423232346 0.724063222917103566089736
0.7234879999128569494359908 -0.001354221701174228124908705 0.7251577783859686210377049
1.189307427730725175152315 0.005476294625295665546849122 0.7217640529152558048764377
1.194653713865362565371697 0.02811705568935431512334056 0.7274892474265995945259533
1.194653713865362565371697 -0.01716446643876298749908926 0.7274892474265994835036508
1.183128567806074560309071 -0.03930742773072531948130859 0.7164177667806184146570558
1.183128567806074560309071 0.03930742773072531948130859 0.7164177667806184146570558
1.177782281671437170089689 -0.0166666666666666664353702 0.7106925722692745139852377
1.171603421746786555246445 -0.01707619772118413453698693 0.7053462861346371237658559
1.171603421746786555246445 0.01625713561214920180320043 0.7053462861346371237658559
1.22680234396625165160799 0.00244872716736248881991278 0.7256463832011107450981058
1.227737717358647673293603 -0.000577980382570566228808695 0.7271597369760773865721148
1.222246073371866526002805 -0.01040530759099176673354581 0.7357820605006959446825476
1.215819055992689579070998 -0.02952070142502090724367925 0.7428910302503478613189714
1.215819055992689357026393 0.008710086243037359898799821 0.7428910302503478613189714
1.224234788816180863335603 -0.007583837467504306491250521 0.723656808433610465591812
1.21561246529156230522517 -0.02367252375160039390422639 0.7266839459375434850940678
1.212688376454852168251364 -0.03578206050069579480243931 0.7372958442296623227107943
1.21561246529156230522517 0.02367252375160042165980201 0.7266839459375434850940678
1.212688376454851946206759 0.03578206050069580868022712 0.7372958442296624337330968
1.224234788816180863335603 0.00758383746750434552252873 0.723656808433610465591812
1.22329941542378484164999 -0.004557129917571252526731218 0.722143454658643824117803
1.220731860273713831332998 0.0005779803825706052600869045 0.7201538798911434335892068
1.212109536749095273222565 0.005476294625295676822551716 0.723181017395076564113765
1.206054768374547725429125 0.02670009120953360792771747 0.7281977296665100851669195
1.206054768374547725429125 -0.01574750195894226989512532 0.7281977296665100851669195
0.7447559570859381139484867 -0.0132582982997253313178776 0.7569482270975325111095344
0.7473779785429688349296384 0.01483099211954622999309894 0.7560303898239724151864039
0.7473779785429691679965458 -0.0413475887189967000745483 0.7560303898239723041641014
0.7467298278195761973563549 -0.04475595708593822080745284 0.7543262056405015680837778
0.74672982781957597531175 0.04475595708593804733510524 0.7543262056405017901283827
0.7441078063625452543305983 -0.01666666666666685031605866 0.7552440429140618860515133
0.7460816770961831156938615 0.01012632230581879053121774 0.7526220214570309430257566
0.7460816770961831156938615 0.0434596556391521199325112 0.7526220214570309430257566
0.7838746071082344224478788 -0.009586902831068836589034632 0.7934615099393032000563153
0.7767450386451622001970918 0.01066945038087116839897739 0.786923019878606688770617
0.7838746071082344224478788 0.03092580359281116297864855 0.7934615099393032000563153
0.7702065485844654668667886 -0.03692301987860666101504137 0.7784990274561074397041693
0.7702065485844654668667886 0.03692301987860666795393527 0.7784990274561076617487743
0.7565384900606965112856983 0.006998054912214856683461139 0.7635365449729114573074185
0.7630769801213932446160015 -0.01325829829972513529412481 0.7719605373954108173961686
0.7565384900606965112856983 -0.03351465151166513334324293 0.7635365449729114573074185
1.228713115393288646259862 0.0009173233156470870803406159 0.7722042079223587762726311
1.227544550183379712393617 -0.003254453735464962402246236 0.7742900964479146885821592
1.217843641012061883799333 -0.01614736460717024896238669 0.7842506566489804153974319
1.2093112970506532111159 -0.03373135458948399445500144 0.7921253283244903409254789
1.209311297050653433160505 0.001436625375143480917716765 0.7921253283244903409254789
1.219629181004231011087313 -0.0208384437177786992212436 0.7663747272687662093204608
1.21396786555091162895792 -0.03658778706879830394660402 0.7575827322776091943268284
1.209928271832913404537635 -0.03425065664898039458075019 0.7763352874698319361357335
1.209928271832913404537635 0.03425065664898040845853799 0.7763352874698320471580359
1.221883234730060108219618 0.02083844371777872697681921 0.7654981014567577846108293
1.212799300341002695091674 0.03425065664898040151964409 0.7596686208031651066363565
1.223051799939969264130468 -0.01666666666666665602702935 0.7634122129312017612789987
1.21622191927674094813483 -0.02381752052219346382777587 0.7567061064656007696171969
1.216221919276740726090225 0.009515812811139872512411486 0.7567061064656007696171969
0.7920834644128241786020794 0.00775359203476561932577571 0.8156701276219414653567696
0.7841669288256483127952379 -0.01666666666666666296592325 0.8209602604302067563324385
0.7920834644128241786020794 -0.02557974129856772221858208 0.8156701276219414653567696
0.7757780762551194086995565 -0.0001110384743911517306524939 0.8258891147295104318004633
0.7753057592717662593884143 0.0008335954923149573730922768 0.8255278362205484832259117
0.7803996368317986931373298 -0.01820403436857002260618188 0.8167315783080297819651605
0.7890848562699264157060952 -0.03416692882564829197855616 0.8122101293507160146845081
0.7750093924041676629599351 -0.001648406176294508335145039 0.8251204308785586860608419
0.7750093924041676629599351 0.001648406176294514406677205 0.8251204308785586860608419
0.7803996368317989151819347 0.01820403436857002954507578 0.816731578308029892987463
0.7890848562699265267283977 0.03416692882564829891745006 0.812210129350716236729113
0.7853175642760770180927921 -0.006700988495383914181346974 0.80798144722853904031723
0.7796309529808471694423133 0.01066945038087115799063653 0.8159628944570781472478416
0.7853175642760770180927921 0.02803988925712622842789656 0.80798144722853904031723
0.7742407085532159172203137 0.0001110384743911579783675128 0.8243517470276069403212205
0.7745370754208145136487929 -0.0007037722095883993398204859 0.8247591523695967374862903
0.8328334989816401634499243 -0.01090854802826388310343919 0.8437420470099038505296107
0.8258036789759639617614084 0.009908879324877667080229138 0.8374840940198079453082869
0.8328334989816401634499243 0.03072630667801920859028009 0.8437420470099039615519132
0.819545725985868167562387 -0.03748409401980820621069768 0.8305353786144626937471003
0.819545725985868167562387 0.03748409401980822702737939 0.8305353786144626937471003
0.8062579529900959496302448 0.01107075722892554743570503 0.8173287102190213149199849
0.8125159059801917438292662 -0.009746670124215994074345915 0.8242774256243665664811715
0.8062579529900959496302448 -0.0305640974773575477274612 0.8173287102190213149199849
0.9491768076523936503718915 0.04468856001095837526815302 0.8455117523585645722405957
0.9483536153047875671973088 -0.01666666666666666296592325 0.8465210876578728171892863
0.9491768076523936503718915 0.01135522667762504413213609 0.8455117523585645722405957
0.9466027763352938828589345 0.01316498872767931510585626 0.8483536153047874783794668
0.9456751297134063927174452 -0.01852195991044156692106881 0.8491768076523937835986544
0.9456751297134063927174452 0.04485193736580019019388743 0.8491768076523937835986544
0.9475362445461794624890217 -0.04835361530478754499284832 0.8457037168992648235033016
0.9457854055766858891729498 -0.04835361530478754499284832 0.8475362445461793736711797
0.9457854055766858891729498 0.04835361530478755193174223 0.8475362445461795957157847
0.9475362445461794624890217 0.04835361530478755193174223 0.8457037168992649345256041
0.9943559351996560380371193 0.01811369437699521245388468 0.823757759177338955147718
0.9887118703993120760742386 -0.01666666666666664214924154 0.8284127823881537455719126
0.9943559351996560380371193 -0.01521963895633812041685573 0.823757759177338955147718
0.9733388066854562481466928 -0.01407946076104516289206892 0.8374182674465014963871567
0.9636098077719441601374228 0.005378537065979000116044961 0.8417687292940346788228112
0.9846022714472146830644306 -0.03871187039931230089440106 0.8243031834360561305174997
0.9623162048191333806101966 -0.03612466449369082510667539 0.8412298045999306861375544
0.9679356047805480756096586 -0.03871187039931229395550716 0.8327697438003001106920919
0.9692292077333588551368848 0.03612466449369085286225101 0.8333086684944041033773487
0.9582066058670362096449935 0.04741279409437852698783189 0.8371202056478335151723513
0.984602271447214794086733 0.03871187039931232864997668 0.8243031834360563525621046
0.9512936029528106240960028 0.04374773880054935726313659 0.8450413417533599869102545
0.9525872059056214036232291 0.0130016113728374967106749 0.8455802664474637575509064
0.9512936029528107351183053 -0.01774451605487436384178679 0.8450413417533599869102545
1.043957710357032997450233 0.0155405563518031288039456 0.8215828459947698281240491
1.037915420714066394580755 -0.01666666666666669072149887 0.8267279885329348321221232
1.043957710357032997450233 -0.01779277698153020059734786 0.8215828459947698281240491
1.026826950735516774670941 -0.005510273290432396442461993 0.8323372240259493404224145
1.021780770399933979675211 0.004582087380733229978191368 0.8328013169807988447246316
1.03265546426839538440845 -0.0379154207140665611142083 0.8214680320872638219498185
1.016202573711816770085647 -0.02675902733783227030461838 0.8280804256577575239717248
1.015988797601728776953678 -0.0379154207140665680531022 0.822356376257237009497203
1.021566994289845764498637 0.02675902733783225989627752 0.8270772675802782192278073
1.010942617266145759913343 0.0388436066237657293132024 0.8228204692120864027771177
1.03265546426839538440845 0.03791542071406654029752659 0.8214680320872638219498185
1.005578196688116987544959 0.0182454306014486131171104 0.8238236272895657075210352
1.011156393376233975089917 -0.003931509355650422872507921 0.828544518612607028273942
1.005578196688116987544959 -0.02610844931274948488297838 0.8238236272895657075210352
1.09331171276717920015642 0.01106264026683647858084747 0.8177509274996572763427594
1.086623425534358533539603 -0.01666666666666665602702935 0.8238430329005975716327725
1.09331171276717920015642 -0.02227069306649685082044599 0.8177509274996572763427594
1.075788095760718654503307 -0.005003992880613008370493944 0.8307920886413315830765214
1.071641053219899442083829 0.003290092201025207434283981 0.831649038981125521274862
1.080298598343474303362655 -0.03662342553435855158072698 0.8175182057097132304335219
1.065809716326872491620747 -0.02496075174830490045474463 0.8262929436930206428257861
1.063631931676807695907883 -0.03662342553435854464183308 0.8191111661623425854727998
1.069463268569834646370964 0.02496075174830489351585072 0.8244672614504475749441781
1.059484889135988483488404 0.03833732621394632389399959 0.8199681165021367457157453
1.08029859834347452540726 0.03662342553435855851962089 0.8175182057097135635004292
1.055831336893026772827398 0.01596246185168291933931251 0.8217937987447099246196558
1.061662673786053501245874 -0.005708197695596765874892498 0.8271498940328145810241267
1.055831336893026772827398 -0.02737885724287642333352188 0.8217937987447095915527484
1.142396356150242819893492 0.004597776944950747457507845 0.8122014207947080288718666
1.134792712300485728604826 -0.01666666666666666296592325 0.8196952446227181443560994
1.142396356150242819893492 -0.02873555638838258888267951 0.8122014207947079178495642
1.124550795502087030541816 -0.003817166930130792140696272 0.8283679624322176637818416
1.121912522553445423767471 0.001459378967152224733719312 0.8295468564137069567010485
1.127220441756921154308202 -0.03479271230048554264246974 0.8121229740791537921040799
1.11548777268517751437571 -0.02194321256394967181724276 0.8231912136482139041859796
1.11055377509025454685343 -0.03479271230048554264246974 0.8144400491231601479924507
1.116978524958522678289796 0.02194321256394968222558362 0.8207956918886532005075196
1.107915502141612940079085 0.03715050026346413541977753 0.8156189431046494409116576
1.127220441756921154308202 0.03479271230048554264246974 0.8121229740791537921040799
1.106424749868267998209603 0.01158971499594205374628064 0.8180144648642100335678151
1.112849499736535907601365 -0.008894118600855406564509309 0.8243701076297030860828841
1.106424749868267998209603 -0.02937795219765287901836359 0.8180144648642100335678151
1.191945880804171409295122 0.0008926692360556066083501769 0.8089467884318843893254325
1.183891761608342640954561 -0.01666666666666668378260496 0.8173922154221993086053999
1.191945880804171409295122 -0.03244066409727772853921479 0.8089467884318843893254325
1.174812169481993295860889 -0.001492517586032202428492077 0.8263046870680256228425264
1.173786696551472497063173 0.000558428275009355051458626 0.8267717317235370177996856
1.175868195661788018213656 -0.03389176160834271589461508 0.80936864947564446381989
1.166199622011155234702073 -0.01871761252770823627522567 0.8192613385860867403209795
1.159201528995121188714279 -0.03389176160834271589461508 0.8107707279840205005783105