# geometry NO_DATA 384
#  x  y  z
4.488552643605793868175624 0.007269662426467764400339622 2.273415520940773149050074
4.494276321802896489998602 0.02915563936559564112149801 2.279660007290237544452793
4.494276321802896489998602 -0.01461631451266011405554224 2.279660007290237544452793
4.459961996294762087700292 -0.03822269446917128665752728 2.298184690763934057144979
4.457703962001480668675413 -0.008519979607970760981938696 2.296369381527867403747223
4.459961996294762087700292 0.02118273525322975775475598 2.298184690763934057144979
4.482961332366167006568958 -0.02405150374854812811431515 2.277742022093706353302878
4.492377429104210229127148 -0.03855264360579454402389032 2.282459616711650429721203
4.473833653132668786156501 -0.03186824167062075885414885 2.286869701327203685536915
4.470656426733394361860974 -0.04636938152786718864151183 2.296285798065247352184315
4.47383365313266967433492 0.03186824167062076579304275 2.286869701327203685536915
4.470656426733394361860974 0.04636938152786718864151183 2.296285798065247352184315
4.482961332366166118390538 0.02405150374854812117542124 2.277742022093706353302878
4.492377429104210229127148 0.03855264360579453708499642 2.282459616711650429721203
4.479136546867749757439015 -0.002165526809420249224752419 2.268697926322828628542538
4.475444128326810044882222 0.005219310272461209418426442 2.270224818054348947526933
4.466316449093312712648185 0.01303604819453385230132447 2.27935249728784672385018
4.46088118840075509297094 -0.002165526809420247056348074 2.286953284789824181189033
4.526237832649279368979478 0.001949432798804248516411075 2.275711600149525004610496
4.527080990923742831455456 -0.0002631162498767143512537481 2.276817874673865649270965
4.522717052828000738884384 -0.008464759941606331619667891 2.285282766132137766135202
4.517509956457795183837334 -0.02708085940707724570408743 2.292641383066069238338969
4.517509956457795183837334 0.01015133952386457552585775 2.292641383066068794249759
4.524960958393813292843788 -0.004503181309735822257511728 2.274697842143936110659297
4.516496066935541620068761 -0.02090673172652577141428232 2.278464231482108637294459
4.513409003095265603633379 -0.03528276613213757878506627 2.287942880945969648109894
4.516496066935541620068761 0.02090673172652577488372927 2.278464231482108637294459
4.513409003095265603633379 0.03528276613213757184617236 2.287942880945969648109894
4.524960958393813292843788 0.004503181309735827461682156 2.274697842143936110659297
4.52411780011934983036781 -0.002290632261054859064586253 2.273591567619595465998827
4.52284092586388375423212 0.0002631162498767201517353709 2.272577809614006572047629
4.514376034405611193278673 0.007269662426467767002424836 2.276344198952179098682791
4.507188017202805596639337 0.02622696135418929597182824 2.281124346295940519269152
4.507188017202805596639337 -0.01168763650125376370170205 2.281124346295940519269152
4.443325592132517876109432 -0.008722355756681253458051373 2.310646563322474200674606
4.446662796066259026872558 0.01793656970917058626757701 2.311281514843726014873937
4.446662796066259026872558 -0.0353812812225330897142328 2.311281514843726014873937
4.437443024017327708463654 -0.00469151016882385796941124 2.342134534186151029189205
4.430519710729435622909023 0.01291089153681264020678832 2.334269068372302857738987
4.437443024017326820285234 0.03051329324244914098507309 2.342134534186151473278414
4.437499271150112889472439 -0.02697957376301203871737933 2.327507012350928050636867
4.445992928632026774948827 -0.04332559213251849922210468 2.32330615862116740544252
4.432035274231035160141801 -0.01792305000279670670892962 2.332971009270005335878295
4.438651044148022251079055 -0.03426906837230316027476107 2.341464666751918777265473
4.432035274231035160141801 0.01792305000279670323948267 2.332971009270005779967505
4.438651044148022251079055 0.03426906837230316027476107 2.341464666751918777265473
4.437499271150112889472439 0.02697957376301203871737933 2.327507012350928050636867
4.445992928632026774948827 0.04332559213251849922210468 2.32330615862116740544252
4.434831934650604878811464 -0.0003206482971602082074694118 2.314847417052234845868952
4.429675481102432144098202 0.009992258799185166351364273 2.31968322230324730526263
4.424211484183354414767564 0.0009357350389698331502921769 2.325147219222325034593268
4.423903940812449420150188 -0.0003206482971602072316874565 2.325775410890389860441019
4.459281272409205243434371 -0.04654076074486869496471542 2.305207928879858148007997
4.455207928879858059190155 -0.04654076074486868802582151 2.309180084334850224792035
4.455207928879858059190155 0.04654076074486868802582151 2.309180084334850668881245
4.459281272409205243434371 0.04654076074486868802582151 2.305207928879858148007997
4.459876306686261671075044 -0.03839407368617277910294305 2.301729619627565615047615
4.457532582784478947246498 -0.008519979607970760981938696 2.303459239255131407730914
4.459876306686261671075044 0.02135411447023125713906566 2.301729619627565615047615
4.453459239255131763002282 -0.008722355756681253458051373 2.307431394710123928604162
4.451729619627565526229773 0.02115173832152076466295298 2.30967393053755110088332
4.451729619627565526229773 -0.03859644983488327157905573 2.30967393053755110088332
4.538017479842242352106041 0.008919376057847214558926829 2.324775541520014421337237
4.544008739921120643145969 0.03027018923342277359478381 2.331577302803392370833535
4.544008739921121531324388 -0.01243143711772833927275972 2.331577302803392370833535
4.531443026616984504073571 -0.03801747984224222026705675 2.318784281441135242118889
4.531443026616984504073571 0.03801747984224222026705675 2.318784281441135686208099
4.525451766538105324855223 -0.01666666666666666296592325 2.311982520157757736711801
4.518877313312847476822753 -0.02044728009936410892399827 2.305991260078879001582663
4.518877313312847476822753 0.01288605323396922047729518 2.305991260078879001582663
4.575237552848212096989755 0.0003791314948446850301329303 2.325141578646632734006516
4.5754031250452396051287 -4.798710078913216025989566e-05 2.325355137944449701592475
4.570501075243268651604467 -0.009756112503153436393832365 2.333712464828177957087973
4.56543345324426930176287 -0.02680191066466478672092322 2.341856232414088800908303
4.56543345324426930176287 0.007289685658357912198535011 2.341856232414088800908303
4.574994875498458846152516 -0.0008644861943515331614146247 2.324946888397668498527082
4.566637548614730590657018 -0.01748316576022906562726256 2.329430569976986831193244
4.561978176162512887970024 -0.03371246482817801676246106 2.337982587109678878078967
4.566637548614730590657018 0.01748316576022906562726256 2.329430569976986831193244
4.561978176162512887970024 0.03371246482817800982356715 2.337982587109678878078967
4.574994875498458846152516 0.0008644861943515329445741902 2.324946888397668498527082
4.574829303301431338013572 -0.0004373675987177160049031166 2.324733329099851530941123
4.574586625951678087176333 4.79871007891318688805618e-05 2.324538638850887295461689
4.566229299067949831680835 0.008919376057847216293650305 2.329022320430205184038641
4.558114649533974827022575 0.02602341032323159455974526 2.333700692258487752184237
4.558114649533974827022575 -0.00818465820753716197244465 2.333700692258487752184237
4.420370348308622965305403 -0.02549566252677193389786225 2.39586601083539507683895
4.416386157901218467713989 -0.0004303075226481008490504732 2.391732021670790686584951
4.420370348308622965305403 0.02463504748147572059879806 2.395866010835395520928159
4.436559518206713015331388 -0.03544142846960388754107285 2.371770739104972491873013
4.425904728269577148580538 -0.02717345014039437844921565 2.384303416607034709073787
4.42674362207638871780091 -0.04173202167079049368370036 2.393690797508503109725098
4.425904728269578036758958 0.02717345014039441314368517 2.384303416607034709073787
4.42674362207638871780091 0.04173202167079050062259427 2.393690797508503553814307
4.436559518206713015331388 0.03544142846960390835775456 2.371770739104972935962223
4.436856843968676855638478 -0.005863870266124575694743903 2.357279285765197407442884
4.42934735063213569361551 0.01291089153681266622764046 2.364558571530395614246345
4.436856843968676855638478 0.03168565333974988212917268 2.357279285765197407442884
4.418692560695000715043079 0.008398688337457192037982523 2.377091249032457831447118
4.415547264094406898493617 -0.002108095136270542960948982 2.38234464076932184184443
4.587532470694012154410757 0.009727222913212051763620636 2.375664474095927847230314
4.593766235347006343658904 0.03059302694055679797124903 2.382627654232873037898344
4.593766235347006343658904 -0.01113858111413269270928428 2.382627654232873037898344
4.580554845762096149996978 -0.03753247069401141611244554 2.369430709442933213892957
4.580554845762096149996978 0.03753247069401140917355164 2.369430709442933213892957
4.574321081109101960748831 -0.0166666666666666664353702 2.362467529305988467314137
4.567343456177185956335052 -0.02222364180914202652639133 2.35623376465299383397678
4.567343456177185956335052 0.01110969152419130634434907 2.35623376465299383397678
4.625247749623082604841784 0.0003923221198122201110181084 2.375144572496728834209989
4.625418116401400325798932 -5.158856317726080899102939e-05 2.375366527838223440483034
4.620349637433140088660366 -0.01008536937334459336612635 2.383725655453145186868369
4.615110791686562130564653 -0.02714435815982348468300422 2.391862827726572771069868
4.615110791686562130564653 0.006973619413134296216028041 2.391862827726572771069868
4.625012651416925635317057 -0.0008625185321255810638740869 2.374961062853749194090369
4.616653523802004777110142 -0.01747759663561499268724653 2.379850468591944157026319
4.611820143039900621317884 -0.0337256554531455629564185 2.388393105849845099442064
4.616653523802004777110142 0.01747759663561498574835262 2.379850468591943712937109
4.611820143039900621317884 0.0337256554531455560175246 2.388393105849845099442064
4.625012651416926523495476 0.0008625185321255741249801829 2.374961062853749194090369
4.624842284638608802538329 -0.0004186078491361001235361583 2.374739107512254587817324
4.624607186432452721192021 5.158856317725394463602484e-05 2.374555597869274947697704
4.616248058817530086628267 0.009727222913212051763620636 2.379445003607469466544444
4.608124029408765309767659 0.02681249742901481783463602 2.384517918988644069600014
4.608124029408765309767659 -0.007358051602590711705309534 2.384517918988644069600014
4.383986881742586660948291 0.001937098152845418991968574 2.425315000667169318404603
4.391993440871293508109829 0.01925731322876524098663964 2.426610323948218628231643
4.391993440871293508109829 -0.01538311692307437784921209 2.426610323948218628231643
4.388853358088205425246997 -0.002852128057413612707837736 2.441705486145618664295398
4.381868449825675249087453 0.01389217756715671776845955 2.433410972291236706865902
4.388853358088205425246997 0.03063648319172707773505593 2.441705486145618220206188
4.383145141818928003374367 -0.0173468344159077303423544 2.432491593409674468517778
4.391491784822255439735272 -0.03398688174258648886372214 2.43347345215609145441249
4.382779548135349756421419 -0.01677092496455826614587536 2.432857187093253159559936
4.389738946588921386648963 -0.03341097229123703160613701 2.441203830096580151831631
4.382779548135349756421419 0.01677092496455820716527718 2.432857187093253159559936
4.389738946588922274827382 0.03341097229123700385056139 2.441203830096580151831631
4.383145141818927115195947 0.01734683441590767136175621 2.432491593409674468517778
4.391491784822254551556853 0.03398688174258646110814652 2.43347345215609145441249
4.375640238739259224587386 -2.661933998793248812232866e-05 2.424333141920752332509892
4.375300154864638635388019 0.0006535484092530974460644178 2.42464660645538510053143
4.374934561181060388435071 7.763895790363509272907772e-05 2.425012200138963791573588
4.37490905137210273068149 -2.661933998793334531967128e-05 2.425064329287909714594207
4.420223743596811694089865 -0.04192680817712704510746846 2.412105564024802362155242
4.412105564024803250333662 -0.04192680817712705204636237 2.42140744643455896323303
4.412105564024803250333662 0.04192680817712702429078675 2.42140744643455896323303
4.420223743596811694089865 0.04192680817712702429078675 2.412105564024803250333662
4.420272955055454033868045 -0.0256904490331084818521834 2.404036595911436258177218
4.416191371394881493017692 -0.0004303075226481239967668557 2.408073191822873049261489
4.420272955055454033868045 0.02482983398781225120588445 2.404036595911436702266428
4.408073191822873049261489 0.001937098152845433520277685 2.417375074232629206250067
4.404036595911437146355638 0.02719723966330581110817377 2.422640360730948572154375
4.404036595911436258177218 -0.02332304335761492888878799 2.422640360730948572154375
4.637361146813199219707258 0.01176910759993931611389062 2.42685674032010334499887
4.643680573406599343400103 0.03246358774647196965279505 2.434755200860005963647836
4.643680573406599343400103 -0.008925372546593349568078146 2.434755200860005963647836
4.6303045553865942451921 -0.03736114681319931823955116 2.420537313726703221306025
4.6303045553865942451921 0.03736114681319933211733897 2.420537313726703221306025
4.623985128793194121499255 -0.01666666666666664908813544 2.412638853186800602657058
4.616928537366589146984097 -0.02272422256014525535072757 2.406319426593400478964213
4.616928537366588258805677 0.01060911077318807752001284 2.406319426593400478964213
4.65836680038716455243275 -0.03412900398892212278090241 2.442495804376087598086542
4.665439693629451767264982 -0.01580406190341452493663965 2.43499160875217457444819
4.65836680038716544061117 0.002520880182093052090941399 2.442495804376087598086542
4.65793549800553829953742 -0.0349916087521742330546104 2.440047024842723732973582
4.65793549800553918771584 0.03499160875217426081018601 2.440047024842723288884372
4.65750419562391293482051 0.03009404968544689487619515 2.437598245309359867860621
4.665008391247825514369652 0.0117691075999393178486141 2.43254282921881070933523
4.65750419562391293482051 -0.00655583448556827826092519 2.437598245309359867860621
4.377325640157968322796478 -0.01714431653853219772454253 2.494469956696501178328162
4.371957885034232660359521 0.005128930187802919343775798 2.488939913393001468477905
4.377325640157968322796478 0.02740217691413804335098803 2.494469956696500734238953
4.387649509252629975719628 -0.03504156572671865421675363 2.472370087135718375037641
4.377900130439217107891636 -0.02398147911972044535322546 2.483506710498885716731365
4.381318711729811354871345 -0.03893991339300179044258243 2.492694160028912087057051
4.377900130439217107891636 0.02398147911972045923101327 2.483506710498886604909785
4.381318711729811354871345 0.03893991339300177656479462 2.492694160028912087057051
4.387649509252629975719628 0.03504156572671868197232925 2.472370087135718819126851
4.388038061370464149035797 -0.004482721492895242257348265 2.45747921713664041476477
4.380237856390192696665054 0.01389217756715676634071688 2.464958434273281095983066
4.388038061370464149035797 0.03226707662720875585682379 2.45747921713664085885398
4.370488477576779828837061 0.00560658005966846884754462 2.47609505763644843767679
4.368539303743638413379813 -0.001708232393385328718588001 2.479752463862975542241429
4.648600958095961743765656 0.03802465994080868327831269 2.489423701844846181785442
4.647201916191924020438364 -0.01666666666666654500472688 2.492613288066366283857178
4.648600958095961743765656 0.004691326607475359081189659 2.489423701844846181785442
4.64440784280267493500105 0.01107851988817053212610375 2.497201916191924553345416
4.643012811317465349247868 -0.01945672963708735062060562 2.498600958095962276672708
4.643012811317465349247868 0.0416137694134282865032759 2.498600958095962276672708
4.645799395685451749216099 -0.0472019161919244173430954 2.491210767559894012634913
4.643005322296203551957205 -0.04720191619192443122088321 2.495799395685452282123151
4.643005322296202663778786 0.04720191619192454224318567 2.495799395685452282123151
4.64579939568545086103768 0.04720191619192454918207957 2.491210767559894456724123
4.675224851589370622662045 0.0001190538859949742727046065 2.474894202296624268200276
4.675201716209182123407118 -0.0001653246463732072416008556 2.475036391562808635313786
4.670967679835694497114673 -0.008302748100601246503127406 2.479270427936295817517021
4.666756778842396258255576 0.000119053885995216415707304 2.483362275043598632606745
4.66712085368473950097723 -0.01695104519903486983700702 2.466955529038366456973108
4.659159295790034960305093 -0.03349865797970651148940391 2.458562668762035663405641
4.662574819559362815368786 -0.02508846865326291170061879 2.482955606201072917826878
4.658704858028219319976415 -0.03345238721932834724537287 2.470782896569327924396475
4.662886817311251874684785 0.0250884686532631059896481 2.471189565411853639176343
4.654493957034921081117318 0.0416360814339347753976206 2.47487474367663118357541
4.667240158314476694556561 0.0169510451990348212647497 2.466643531286477841746319
4.659136160409845572871745 0.03345238721932832642869116 2.458704858028219142340731
4.667263293694665193811488 -0.01666666666666668378260496 2.466501342020293474632808
4.659278600419772153884423 -0.03230540392370804397836892 2.458250671010146604089641
4.659278600419772153884423 0.001027929409625279568232803 2.458250671010146604089641
4.654181959283032021801318 0.03245882518281892337164152 2.486640784465851350404364
4.658363918566064576509689 0.007489410415551030382463882 2.487047453308376177005812
4.654181959283031133622899 -0.01748000435171707944714825 2.486640784465850906315154
4.374555100160913312379307 -0.02052706698157437739671316 2.545082167142489026900876
4.36965429936672400401676 0.002970600636736482006577953 2.540164334284977787348225
4.374555100160913312379307 0.02646826825504734054250733 2.545082167142489026900876
4.377270879005967785246867 -0.03907400987250221613411583 2.51637308057873365640944
4.371290913436244096601513 -0.02923834415747974396770914 2.528121914387889468400772
4.375646552024196722641136 -0.04016433428497752367025697 2.53932558599080682171234
4.371290913436244096601513 0.02923834415747972315102743 2.528121914387889024311562
4.375646552024196722641136 0.04016433428497752367025697 2.53932558599080682171234
4.377270879005967785246867 0.03907400987250219531743411 2.51637308057873365640944
4.377258591918218755267844 -0.01727841301803262688552287 2.505462995063749254143204
4.371823788554732637123834 0.005128930187802901996541038 2.510925990127498508286408
4.377258591918218755267844 0.02753627339363845516473361 2.505462995063749254143204
4.365843822985008060300061 0.006831000951644169982834853 2.52267482393665343209932
4.365298660778770489798717 -0.005740676539168884998098896 2.528960662682059989947447
4.639767916117151891342019 0.00182126168149674078425293 2.512053345564344120077749
4.633749904319698131871519 -0.0138572852764038290801496 2.519892619043293979785858
4.620248896475674271755452 -0.01314473041164391543811352 2.535154595014829315147153
4.612765900429104171109884 -0.03163265875980719732396551 2.54257729750741479080034
4.612765900429104171109884 0.005343197936519362978291525 2.54257729750741434671113
4.626337883869711120610191 -0.03234521362456711096600159 2.51248059859330652443532
4.630966512973047066736854 -0.04719061860973716715506043 2.503236634419224948544525
4.612836876025687260494124 -0.03515459501482994658649872 2.527742574564841859796616
4.612836876025687260494124 0.03515459501482995352539263 2.527742574564841859796616
4.638378533423034966176601 0.03234521362456723586609186 2.510648654869212847984272
4.624948501175594195444774 0.03515459501482994658649872 2.511075907898175252341844
4.644396545220488725647101 -0.01666666666666653806583298 2.502809381390262544186953
4.643007162526371800481684 0.008269138497907699975053575 2.501404690695131272093477
4.643007162526371800481684 0.04160247183124103631524093 2.501404690695131272093477
4.386259684460014796059113 -0.006643607761748828235970343 2.592903292221763855707195
4.378774903897360459836818 0.0124963100151126230152876 2.585806584443528066685758
4.386259684460014796059113 0.03163622779197407253182206 2.592903292221763855707195
4.375640881093405099022675 -0.0399659634721560089176684 2.565822247441704284653952
4.372918955219939896039705 -0.02577254791568412209401551 2.575392206330134658998077
4.382483425296907597612517 -0.03580658444352811942135162 2.587041854732879730960349
4.372918955219939896039705 0.02577254791568412209401551 2.575392206330134658998077
4.382483425296907597612517 0.03580658444352811248245771 2.587041854732879730960349
4.375640881093405099022675 0.0399659634721560089176684 2.565822247441704284653952
4.374654285567324052408367 -0.02032869616875285917467764 2.555017018263921801946026
4.369852670179544595896459 0.002970600636736482006577953 2.560034036527843781527736
4.374654285567324052408367 0.02626989744222582578991876 2.555017018263921801946026
4.367130744306078504735069 0.002473251110194781780121653 2.569603995416274599961071
4.369210433820392758264006 -0.006632630138822673444842781 2.574156936040782994723486
4.596315399102515186768869 0.02749803988815266442280461 2.581182640785638415792391
4.592630798205028952452267 -0.01666666666666666990481716 2.585064419046590344919423
4.596315399102515186768869 -0.005835293445180675386829705 2.581182640785638415792391
4.585250685133311243646403 0.001906440523233338514910717 2.592630798205028064273847
4.581555172959079769157142 -0.02405769101512813396004375 2.59631539910251385450124
4.581555172959080657335562 0.0278705720615948122909078 2.59631539910251385450124
4.588948125774646946695157 -0.04263079820502814476501641 2.581381746616209671429942
4.581568012702931014246133 -0.0426307982050281378261225 2.588948125774646946695157
4.581568012702931014246133 0.04263079820502814476501641 2.588948125774646946695157
4.588948125774646946695157 0.0426307982050281378261225 2.581381746616209671429942
4.62678236421249344800799 0.0004807105625140439407634585 2.573698346350020038642015
4.626251715028132593943155 -0.001542008931236775286233165 2.5747097060968955339888
4.621236488430690236839382 -0.008488444263645375867377574 2.579724932694336558824943
4.616751911017610510157283 0.0004807105625140439949735671 2.583728799544902088314302
4.618232520896397019782853 -0.01868938616041749059548671 2.566690511965160403917707
4.611419800409318980882745 -0.03487534226457011943267617 2.558116823350570001593951
4.612662799816100722694046 -0.02563582149282609204399286 2.580251531587975044601535
4.609128183097445763394262 -0.03381404389584738434670896 2.568228470605674829130294
4.613217294298956439035919 0.02563582149282609204399286 2.571705738562601428753851
4.604643605684366036712163 0.04182177759697872088118231 2.572232337456240358619652
4.619438994541053666864627 0.01868938616041748712603976 2.566136017482305131665044
4.61088915122495723863949 0.03381404389584738434670896 2.559128183097445052851526
4.619969643725413632751042 -0.01666666666666666990481716 2.565124657735429636318258
4.61262627405397385160768 -0.02826938814707381092405925 2.557562328867714729341287
4.61262627405397385160768 0.005063945186259526283489851 2.557562328867714729341287
4.604089111201510320370289 0.02668901928010323360007661 2.580778130481613974467336
4.608178222403020996011946 0.001533908349791187177360574 2.584255398438540574090894
4.604089111201511208548709 -0.0236212025805208614137598 2.580778130481613974467336
4.392381359628201309419637 0.01449169983906570952081339 2.62211034021086453194016
4.384762719256402263567907 -0.01666666666666663174090068 2.624627209547734096872773
4.392381359628201309419637 -0.01884163349426762681937397 2.62211034021086453194016
4.376383493492956411330397 -9.178486022382256769892861e-05 2.626475278353180620172225
4.375622908101309604944618 0.001429385923069195762913353 2.625806477821758022628273
4.381792902617831053646569 -0.01843594329225548347772623 2.617211414276941372492047
4.390296181302423939030177 -0.03476271925640249393918424 2.615579183252866091180522
4.375498855180161683620099 -0.001861061485812674819520507 2.625590640040386336551137
4.375498855180162571798519 0.001861061485812711899234806 2.625590640040386780640347
4.381792902617830165468149 0.0184359432922555216416427 2.617211414276941372492047
4.390296181302423939030177 0.03476271925640252863365376 2.615579183252866535269732
4.387326364663852729108839 -0.004510247354073702863441753 2.608163387982073366799796
4.380908264305036325936271 0.0124963100151126230152876 2.616326775964147088870959
4.387326364663852729108839 0.02950286738429894542456999 2.608163387982073366799796
4.374614216867368732266641 9.178486022385953899301037e-05 2.624706001727592052930049
4.37473826978851576541274 -0.0003398907025196566786436059 2.624921839508964183096396
4.422887662956851428930349 -0.02259970938369117512967144 2.645487372340541654125445
4.418212772967612167462903 0.001708368630726399967079132 2.640974744681083841157943
4.42288766295685054075193 0.02601644664514386057208029 2.645487372340542098214655
4.41370014530815524267382 -0.04097474468108412704037136 2.635351862631873487430312
4.4137001453081543544954 0.04097474468108423806267382 2.635351862631873487430312
4.404512627659458168238871 0.0207037252637474224192804 2.625216352923205320735178
4.409025255318915981206374 -0.003604352750670039053082494 2.630839234972415674462809
4.404512627659458168238871 -0.02791243076508762022136523 2.625216352923205320735178
4.584783611320787599652249 0.001070625965897003400995047 2.61628701464510848850864
4.580694775134816154604778 -0.009248298337839619409628256 2.621446476796976732259736
4.568481953892142399809018 -0.01517734414750709394381634 2.634403959299229658341801
4.560357968835440090060729 -0.03291463678007076204545811 2.64220197964961478476198
4.560357968835440090060729 0.002559948485056572423101962 2.64220197964961478476198
4.57290610793401786082768 -0.02698559097040328924599351 2.613657809596178438482639
4.573324015212685722531205 -0.04258163167117295921926257 2.604789163279896957448045
4.56069328669134410603192 -0.0344039592992303328022885 2.626615292098431808653913
4.56069328669134410603192 0.0344039592992303328022885 2.626615292098431808653913
4.581112682413484016308303 0.02698559097040328924599351 2.612577830480694807135933
4.569235179026714277483734 0.0344039592992303328022885 2.609948625431764757109931
4.585201518599455461355774 -0.0166666666666666664353702 2.607418368328826563384837
4.581530589692151878011828 -0.005511927805593707860309927 2.60370918416441288201213
4.581530589692151878011828 0.02782140552773962674515396 2.60370918416441288201213
4.439135763402391354759402 -0.003249328714987098718630643 2.692385092117378420084606
4.430990243525128491342002 0.01485418885310339082161946 2.684770184234756218444318
4.439135763402391354759402 0.03295770642119383309065483 2.692385092117377531906186
4.425721956002043100397714 -0.04023269605627373401990354 2.666534438353345581873555
4.424149346235968671692262 -0.02500288029103084688764547 2.675586197137390431777249
4.435026122023989714193704 -0.03477018423475711217385253 2.687369211832194793032613
4.424149346235967783513843 0.02500288029103102729888697 2.675586197137390431777249
4.435026122023989714193704 0.03477018423475715380721596 2.687369211832194793032613
4.425721956002043100397714 0.04023269605627387279778162 2.666534438353345581873555
4.423258687269256306251464 -0.02185766075888078210920362 2.654883651971863045559985
4.418954821592422810283551 0.001708368630726427722654748 2.659767303943725735848602
4.423258687269255418073044 0.02527439802033349183774114 2.654883651971862601470775
4.4173822118263483815781 0.001436850901423963400641015 2.668819062727770585752296
4.420113467737107448840561 -0.006899362722940357781076237 2.672987169539952745367373
4.542399340269259511160271 0.003504080457330758461426123 2.661104740188071193784936
4.534798680538518311777807 -0.01666666666666666296592325 2.669151380497924996859638
4.542399340269259511160271 -0.02982925287600256963882472 2.661104740188071193784936
4.519197750793535917068766 -0.01453519282329711510837189 2.684798680538519111138385
4.51119748077929472174219 -0.03266720669514924790810539 2.69239934026925897825322
4.51119748077929472174219 0.003596821048555021160808565 2.69239934026925897825322
4.527202305096336587553196 -0.03479868053851879750038023 2.661555005055744160813447
4.511601375351355081022575 -0.03479868053851879750038023 2.677202305096337831002984
4.511601375351355081022575 0.03479868053851879750038023 2.677202305096337386913774
4.527202305096336587553196 0.03479868053851879750038023 2.661555005055743716724237
4.556791482018984318358434 -0.03837596809824042609626815 2.656046820759404347711552
4.5560468207594038148045 -0.03837596809824042609626815 2.657066187385477284976787
4.5560468207594038148045 0.03837596809824042609626815 2.657066187385477284976787
4.556791482018984318358434 0.03837596809824042609626815 2.656046820759404347711552
4.557301338470038487571401 -0.03688664557908084840054386 2.655812015950879345638214
4.562368693161339194830362 -0.01517734414750709914798676 2.661624031901759224183479
4.557301338470038487571401 0.006531957284066660512911184 2.655812015950879345638214
4.561624031901758691276427 -0.01462793341452137997615868 2.662643398527832161448714
4.555812015950879256820372 0.007081368017052378817377534 2.657850749203024776079474
4.555812015950879256820372 -0.0363372348460951344328862 2.657850749203024776079474
4.443093385046931409476656 -0.01389039865003602672310912 2.708294748961384001972874
4.44654669252346579355617 0.01253631973022839574127829 2.706229575493164674071522
4.44654669252346579355617 -0.04031711703030043530970872 2.706229575493164674071522
4.445640453616684695248296 -0.04309338504693108889975761 2.70484144148484961789336
4.445640453616683807069876 0.043093385046931061144182 2.70484144148484961789336
4.442187146140149422990362 -0.01666666666666668725205191 2.706906614953068501705502