# geometry NO_DATA 644
#  x  y  z
1.049047801966136228557502 0.04395124617774599784514322 0.6949034442116094334451759
1.048095603932272634750689 -0.01666666666666666296592325 0.6960234250550094703413606
1.049047801966136228557502 0.01061791284441266670912629 0.6949034442116094334451759
1.044111942153373107089465 0.008699343108867260698779944 0.698095603932273101044359
1.041080478408336951190449 -0.02272959415673910313349104 0.6990478019661364728065678
1.041080478408336951190449 0.04012828037447362106160398 0.6990478019661365838288702
1.047230796963979138070044 -0.04809560393227302332874729 0.6951586180867158626384139
1.043247135185079388364215 -0.04809560393227302332874729 0.6972307969639794933414123
1.043247135185079388364215 0.04809560393227303026764119 0.6972307969639794933414123
1.047230796963979138070044 0.04809560393227303026764119 0.6951586180867158626384139
1.096362125912883289657884 0.03093520955465934446637633 0.6845730836417758258249933
1.092724251825766712542531 -0.01666666666666666296592325 0.6868297306902129140127045
1.096362125912883289657884 -0.002398123778673994042215378 0.6845730836417758258249933
1.07779559670276459115712 -0.01319064357933733347416627 0.690986240282102093246408
1.066504815666879268931666 0.009390918492433519143558485 0.6928861028255540732700979
1.091453768460274087459538 -0.04272425182576684854485194 0.6855592473247203999520138
1.064766804123214560817701 -0.03924822873843751558364801 0.6925519354919551506810649
1.074787101793607480004766 -0.04272425182576684854485194 0.6893815895830106565966844
1.076525113337272188118732 0.03924822873843752252254191 0.6897157569166095791857174
1.063496320757721935734708 0.04652397691267066287545973 0.6912814521264625255980718
1.091453768460274087459538 0.04272425182576686242263975 0.6855592473247203999520138
1.051738011543664530478281 0.04237961915814364433074957 0.6941176307018082081157218
1.053476023087329238592247 0.01252230891213963401287224 0.6944517980354071307047548
1.051738011543664530478281 -0.01733500133386436242721729 0.6941176307018082081157218
1.143468776800056652120929 0.02137446954385742795001768 0.6779056927438007473796233
1.136937553600113171015096 -0.01666666666666665602702935 0.6791560115719851298266008
1.143468776800056652120929 -0.01195886378947590492072273 0.6779056927438007473796233
1.126379232830406751375563 -0.004449974872746675046142339 0.6808292077031530276087778
1.122352135260643368752653 0.00360422026677977187791857 0.6812520850061365429439775
1.136478664094894286407111 -0.03693755360011308913614769 0.6786971220667661341963139
1.116243789363683180937414 -0.02472086180619310902262242 0.6814659097675426213669425
1.119811997428227456907734 -0.03693755360011308913614769 0.6805841429593402214237585
1.125920343325187644722973 0.02472086180619312290041023 0.6803703181979339209561886
1.11578489985846429632943 0.0377833082060800296009262 0.6810070202623236257366557
1.136478664094894286407111 0.0369375536001130960750416 0.6786971220667661341963139
1.106108345896959832543871 0.02599426593497251164466277 0.6821026118319324371697121
1.11221669179392002035911 0.004877624395559158887447637 0.6818887870705261367021421
1.106108345896960054588476 -0.01623901714385419733921445 0.6821026118319324371697121
1.191726826684643025799915 0.01693364956698535650492232 0.6752068228823420170670033
1.18345365336928609600875 -0.01666666666666666990481716 0.6751936514681358136868994
1.191726826684643025799915 -0.01639968376634798330471199 0.6752068228823420170670033
1.175056489321746333587271 -0.000127661428412693554648033 0.6751841507501593619977598
1.174932498589563500956956 0.0001203200359530698940408247 0.6751878214463891136887241
1.183697332237121147002767 -0.03345365336928640687119696 0.6754373303359707536586143
1.166662995970436655923663 -0.01691464813103242537106752 0.6756757820373883172138108
1.167030665570454539547995 -0.03345365336928640687119696 0.6759157902089933944722588
1.175300168189581606625893 0.01691464813103242884051447 0.6754278296179944129917772
1.166906674838271706917681 0.03346099476174602821432202 0.6759194609052232571855257
1.183697332237121369047372 0.03345365336928640687119696 0.6754373303359707536586143
1.158269502619126978260056 0.01789791070549035661985116 0.6761674133246172724298617
1.166539005238253823293348 0.001103582610410994840899335 0.6756794527336180689047751
1.158269502619126978260056 -0.01569074548466836346860553 0.6761674133246172724298617
1.241914227102535406288553 0.0185909674746059690175759 0.6766767403720701512526148
1.233828454205070812577105 -0.01666666666666667337426411 0.6762097108398386069438857
1.241914227102535406288553 -0.0147423658587273638531645 0.6766767403720701512526148
1.225266251748660772946664 -0.0004577382461531518580491462 0.6757239899948143113661558
1.22478982218971532702767 0.0004951208717378048152282788 0.6757052986820220041863649
1.233990618851741993822202 -0.0338284542050711553584641 0.6763718754865097881889824
1.216685357979458759203339 -0.01761952578455763460119066 0.6755497609911280676442402
1.21732395218507538636743 -0.0338284542050711553584641 0.6757306169505917781137327
1.225428416395331954191761 0.0176195257845576172539559 0.675886154641485603633555
1.216847522626129940448436 0.03379107157948647160994327 0.6757119256377992488893369
1.233990618851742215866807 0.03382845420507114841957019 0.6763718754865096771666799
1.20810446421025652341541 0.01727106777718541777422168 0.6753755319874420459669295
1.216208928420513091239741 0.0001466628643656072328478601 0.6755310696783356494421469
1.20810446421025652341541 -0.01697774204845419257492445 0.6753755319874420459669295
1.2942267750561087247263 0.02661398618728864212679142 0.6823872111311797272747981
1.288453550112217627088285 -0.01666666666666667684371106 0.682533768149753194975915
1.2942267750561087247263 -0.006719347146044698550204632 0.6823872111311797272747981
1.277984707426351729253611 -0.004271018705065073722826341 0.682255726131416939672647
1.273289089684376929056953 0.005120216778884382688441512 0.6818311270945072166682621
1.287635047669178245399735 -0.0384535501122177242327993 0.6817152657067137022650627
1.26709126570357599739225 -0.02605790215061611764246763 0.6804102077100755430194567
1.270968381002511415900358 -0.0384535501122177242327993 0.6800163043039457733129893
1.277166204983312125520456 0.02605790215061611764246763 0.6814372236883775579840972
1.2662727632605366157037 0.0376043520383984031241198 0.679591705267035939286302
1.28763504766917802335513 0.0384535501122177242327993 0.6817152657067137022650627
1.256197823980800487575493 0.02236686530793322025267855 0.6785646892887339243216616
1.262395647961601197195591 0.001429179936201483997609829 0.6799856086731657089927694
1.256197823980800487575493 -0.01950850543553024618592673 0.6785646892887339243216616
1.347349491558697653914578 0.03814164359952603583492348 0.6907921520408284443703906
1.344698983117395219011314 -0.01666666666666665602702935 0.6914203133584604366035364
1.347349491558697653914578 0.004808310266192704698906546 0.6907921520408284443703906
1.331842026775225340529119 -0.009047246017672774809348368 0.6908892727928980237450673
1.321635578874358118994792 0.01136564978406158672730175 0.6897300709097036186534524
1.343453648901208996591095 -0.04469898311739491092442478 0.6901749791422742141833169
1.317825868549860945933005 -0.0370795624684010297067438 0.6876199992717360043315011
1.326786982234542389136323 -0.04469898311739491092442478 0.6875338669387441870028965
1.330596692559039118108899 0.0370795624684010366456377 0.6896439385767118013248478
1.316580534333674723512786 0.04238057935100612155787658 0.6863746650555497819112816
1.343453648901208996591095 0.04469898311739491092442478 0.6901749791422742141833169
1.303809710324496773381497 0.03054101542607704292131565 0.6843507257505740959402374
1.307619420648993946443284 0.004827102741737592135617962 0.6864607973885417102621886
1.303809710324496773381497 -0.02088680994260186385425015 0.6843507257505740959402374
1.38246625711091963850663 -0.01587434798617493383887656 0.6983406050970946132849804
1.368722220909817988143686 0.01414019554134758605012934 0.6966812101941890489342768
1.38246625711091963850663 0.04415473906887010246968828 0.6983406050970946132849804
1.367062826006912645837588 -0.04668121019418917244658829 0.6950619353381599641039656
1.367062826006912645837588 0.04668121019418919326327 0.6950619353381601861485706
1.351659394902905209079336 0.04012387067632030429598089 0.6917832655792255369675559
1.353318789805810995474644 0.0101093271487977913458689 0.693402540435254621797867
1.351659394902905653168546 -0.01990521637872472160424309 0.6917832655792255369675559
0.9958540816718384203198866 0.02343014288530182592795725 0.7275760612134631877268021
0.9917081633436769516620757 -0.0166666666666666594964763 0.7325691531144893353655334
0.9958540816718384203198866 -0.009903190448031510412230105 0.7275760612134631877268021
0.9836986465338848351080969 0.0006476330470824390736842013 0.7417081633436769516620757
0.9798350480522541872119291 -0.02439386362992798651383453 0.7458540816718384203198866
0.9798350480522541872119291 0.0256891297240928601075538 0.7458540816718384203198866
0.9900377729226175205212712 -0.04170816334367708627661742 0.730898762693429682180124
0.98202825611282529294499 -0.04170816334367708627661742 0.7400377729226175205212712
0.98202825611282529294499 0.04170816334367708627661742 0.7400377729226172984766663
0.9900377729226175205212712 0.04170816334367709321551132 0.730898762693429682180124
1.019956273743144681276362 -0.04490628952063376033709829 0.7072732688553777791184984
1.007273268855377601482814 -0.04490628952063376033709829 0.7148009252928566592544257
1.007273268855377601482814 0.0449062895206337742148861 0.7148009252928566592544257
1.019956273743144681276362 0.0449062895206337742148861 0.7072732688553777791184984
1.027912865015216947739418 -0.019540279745099843611289 0.7025468552396830768103086
1.017776715367133100187402 0.008699343108867255494609516 0.7050937104793661980295383
1.027912865015216947739418 0.03693896596283435806995499 0.7025468552396830768103086
1.005093710479366020393854 -0.001611353791708601936386036 0.7126213669168450781654656
1.002546855239683010196927 0.02662826906225850345788508 0.7176021681146409481044657
1.002546855239683010196927 -0.02985097664567569822335891 0.7176021681146411701490706
1.399735326638245513919401 -0.016099314040445164564197 0.7005483496748652338936836
1.399867663319122712550779 0.01696934593113374328821052 0.7006996893070988052798498
1.399867663319122712550779 -0.04916797401202407935549843 0.7006996893070988052798498
1.398604427756463097765049 -0.04973532663824557775722468 0.7004160129939880352623049
1.398604427756463319809654 0.04973532663824557775722468 0.7004160129939880352623049
1.398472091075586121178276 -0.01666666666666666990481716 0.7002646733617543528538363
1.397341192193803927068529 0.01387552217959314888873212 0.7001323366808771542224576
1.397341192193803927068529 0.04720885551292648696364296 0.7001323366808771542224576
1.445246870917836101710918 -0.006999592449027991665488901 0.709586666190983095248157
1.447623435458918139673301 0.02158061180214175880931471 0.7120436387587205651072964
1.447623435458918139673301 -0.0355797967001977577528038 0.7120436387587203430626914
1.414841298811792213996341 -0.04488502653673435982550899 0.7029277612272891717637435
1.431327043287907940793957 -0.04524687091783642645115293 0.7075803761455574658612022
1.400551196686207200414742 -0.04963815561889795002770143 0.7008348729993181258635104
1.400551196686207200414742 0.04963815561889795002770143 0.7008348729993181258635104
1.414841298811792213996341 0.0448850265367343737032968 0.7029277612272891717637435
1.431327043287907940793957 0.04524687091783642645115293 0.7075803761455574658612022
1.428761126441720819002512 -0.01630482228556459634027931 0.7049340512727146901283959
1.414651946506686908122674 0.01191353758450309358041252 0.702738408922183976912379
1.40036184438110211658568 -0.016099314040445164564197 0.7006455206942128199898434
1.400180922190551235928524 0.01687217491178610861979337 0.7007482748167725983279297
1.400180922190551235928524 -0.04907080299267644468708127 0.7007482748167725983279297
1.485892462865304963770541 0.004106114289424157501318113 0.7244939276127407845606854
1.49294623143265248188527 0.02333191048806220607714224 0.7278265495234383930522881
1.49294623143265248188527 -0.01511968190921390495229382 0.7278265495234383930522881
1.47285751208848947335639 -0.02390032056902762630512527 0.7202983825565181241756818
1.483528107607017476610167 -0.0358924628653047167459178 0.7246887018864249796479271
1.463244613989170384016347 -0.03800785770372290539587112 0.7180781510979896697932645
1.463244613989170384016347 0.03800785770372292621255284 0.7180781510979896697932645
1.47285751208848947335639 0.02390032056902765059125393 0.7202983825565181241756818
1.483528107607017476610167 0.03589246286530473062370561 0.7246887018864249796479271
1.475221867346776516427553 -0.004674524370389565586236813 0.7201036082828338180661376
1.471605040395596031288505 0.002559129531971410329710404 0.7190459108636246821077975
1.461992142296276941948463 -0.006999592449027984726594998 0.7168256794050963387476827
1.455996071148138337747469 0.01434159858802826377488504 0.7156631453657771313459079
1.455996071148138781836678 -0.02834078348608424363641589 0.7156631453657771313459079
1.535878613000633663432382 -0.01092563237205504411697632 0.7468042453726889684517687
1.522732938441283323527387 0.0160161917066561215738929 0.7436084907453778258812349
1.535878613000633663432382 0.04295801578536727338697432 0.7468042453726889684517687
1.519537183813972180956853 -0.04360849074537782171789857 0.740523969184067709647934
1.519537183813972180956853 0.04360849074537784253458028 0.740523969184067709647934
1.503195754627310920525929 0.03104793836813531451856996 0.7342436929954463398217968
1.506391509254621841051858 0.004106114289424162705488541 0.7373282145567566780997026
1.503195754627310920525929 -0.02283570978928700645482763 0.7342436929954463398217968
0.9573771407893387763721194 -0.04049526502964927165972853 0.7978724058189881063185567
0.9568799616661870510725407 -0.01141712005833948190280935 0.7957448116379765012950998
0.9573771407893387763721194 0.01766102491297029397632201 0.7978724058189882173408591
0.9692382279776633469126068 -0.04129229994812758097744165 0.7605810781207889004207345
0.9627086723018005720575729 -0.03703711158610401704693871 0.7751201506064437918297472
0.9609795955800279898539884 -0.04574481163797644578394852 0.7874329672471742647132942
0.9627086723018006830798754 0.03703711158610405174140823 0.7751201506064440138743521
0.9609795955800279898539884 0.04574481163797645966173633 0.7874329672471743757355966
0.9692382279776634579349093 0.04129229994812759485522946 0.7605810781207889004207345
0.9716681497396850719638906 -0.02397800023437847774521181 0.754353850025936134571225
0.9673648499087468266566248 0.000647633047082443735753543 0.7587077000518723801647525
0.9716681497396850719638906 0.02527326632854335480837804 0.754353850025936134571225
0.9608352942328841628238933 0.0124114783046431354646133 0.7732467725375272715737651
0.9586090383879596332761253 -0.007958966614794229024743011 0.7834319949972459173892503
1.549875936395830322567235 -0.01638931833833443679759867 0.7502627377683357412507803
1.549937968197915072465776 0.016819951390829319948228 0.750339380130416899739032
1.549937968197915072465776 -0.04959858806749818660453144 0.750339380130416899739032
1.549612730717909503397323 -0.04987593639583041277285602 0.7502007059662508803299374
1.549612730717909503397323 0.04987593639583043358953773 0.7502007059662508803299374
1.549550698915824975543387 -0.0166666666666666594964763 0.7501240636041696108193833
1.549287493237904600462684 0.01589212810248653157119136 0.7500620318020848609208429
1.549287493237904600462684 0.04922546143581986444193177 0.7500620318020848609208429
1.592703042466364182772054 -0.001728127062062285307364462 0.7647662273359383533488653
1.596351521233181802728041 0.02430824873763491947298299 0.7685870183714225145621413
1.596351521233181802728041 -0.02776450286175950049605277 0.7685870183714225145621413
1.563348891136271401336444 -0.04248860891279411522436504 0.7539791820032410996077488
1.579908341026153628661177 -0.0427030424663638677462707 0.7613412350287585006469726
1.550330703236422857926868 -0.049785566446430243314758 0.7504693774005890549716469
1.550330703236422857926868 0.04978556644643026413143971 0.7504693774005890549716469
1.563348891136271845425654 0.04248860891279413604104676 0.7539791820032410996077488
1.579908341026153628661177 0.04270304246636388856295241 0.7613412350287585006469726
1.576143592576482177491926 -0.0164522331130969104440176 0.757404174310421063331944
1.563232621453418236256994 0.009369709133030548753318101 0.7538629123203877124836936
1.550214433553569692847418 -0.01638931833833443679759867 0.7503531077177357788698941
1.550107216776784646583565 0.01672958144142915049012998 0.7503845651051170850820426
1.550107216776784646583565 -0.04950821811809802408532732 0.7503845651051169740597402
1.649003853178700573778315 0.04613565057430570048868645 0.7971317973956053570816493
1.648007706357401236374471 -0.0166666666666666525575824 0.7970716784658535836172177
1.649003853178700573778315 0.0128023172409723641484991 0.7971317973956053570816493
1.636338996913702326096995 -0.006670752220730935544423801 0.7930097491344332283347285
1.625666434291302753223363 0.01467437302406773315388566 0.7890079387327648685612758
1.647331044593213444926505 -0.04800770635740105041211478 0.7963950167016659031915538
1.620668477068335278090672 -0.03801179191146532992950924 0.7848084990913682945645746
1.630664377926546837471733 -0.04800770635740105041211478 0.7881336477288490849346658
1.635662335149514756693634 0.03801179191146535074619095 0.792333087370245658931367
1.61999181530414770868731 0.04000408555406428923184592 0.7841318373271806141389106
1.647331044593213444926505 0.0480077063574010712287965 0.7963950167016659031915538
1.604997957222968008039743 0.02160929182533533055021735 0.7766072490483032497721183
1.609995914445935927261644 -0.001728127062062286391566635 0.780806688689699712746517
1.604997957222967785995138 -0.02506554594945990810384018 0.7766072490483032497721183
1.653334005875537915386531 -0.04626636922122660117162596 0.7996003750967647372149827
1.652266440292622151631008 -0.01373228569436404228332194 0.7992007501935294300210444
1.653334005875537915386531 0.01880179783249851660498209 0.7996003750967647372149827
1.651866815389386733414767 -0.04920075019352922185422727 0.7986643472052170622532685
1.651866815389386733414767 0.04920075019352923573201508 0.7986643472052170622532685
1.650399624903235329398399 0.04732869441043386499190504 0.7977283193136692762692519
1.65079924980647074761464 0.01479461088357130957304797 0.7982647223019816440370278
1.650399624903235329398399 -0.017739472643291252784703 0.7977283193136692762692519
0.9516020253585262267392864 -0.04806391716691808119188423 0.8496659425254442510322406
0.9513020988910968478435848 -0.01539869878269636317702496 0.8493318850508884132466392
0.9516020253585262267392864 0.01726651960152536177672822 0.8496659425254442510322406
0.9561984775751237730645471 -0.0475427762298263612006366 0.8035737042709603095147486
0.9539077617455161695048105 -0.04687466128071474807947894 0.8199063134630710791839192
0.9533131338024143364151541 -0.049331885050888382715506 0.8353443682446510809569418
0.953907761745516058482508 0.04687466128071476889616065 0.8199063134630713012285241
0.9533131338024143364151541 0.04933188505088839659329381 0.8353443682446510809569418
0.9561984775751236620422446 0.0475427762298263681395305 0.803573704270960420537051
0.9564781584934137770304119 -0.0422932296214991870764166 0.8012286118850866500906704
0.9550819970743369413668233 -0.01141712005833948884170326 0.8024572237701735888393273
0.9564781584934137770304119 0.01945898950482020939301009 0.8012286118850868721352754
0.9527912812447292267847843 0.0159985517175550637225534 0.8187898329622843585084979
0.9518967268341983478663337 -0.01420944289649303006461967 0.8338938302693084114736166
1.691997527218121799563733 0.0008660248798488881516455251 0.8167688185551355006808194
1.695998763609060988599708 0.0261968854313043598980304 0.8215339279374542780232105
1.695998763609060988599708 -0.02446483567160658359473935 0.8215339279374542780232105
1.6807992874285455631167 -0.04199752721812213818175508 0.8127675821641966447117511
1.6807992874285455631167 0.04199752721812213818175508 0.8127675821641966447117511
1.676798051037606374080724 -0.0166666666666666664353702 0.80800247278187786736936
1.665599811248030137633691 -0.02173475847624190687712442 0.8040012363909390114002917
1.665599811248030137633691 0.01159857485709142599361599 0.8040012363909390114002917
1.726055411578697018626372 -0.02042982025013492797249626 0.846485231828831730105378
1.718299858046100414554758 0.005873976740862372689089277 0.8429704636576638154821239
1.726055411578697018626372 0.03217777373185967682012176 0.846485231828831730105378
1.714785089874932388909201 -0.04297046365766397230112617 0.8385849109354228669843678
1.714785089874932610953806 0.04297046365766396536223226 0.8385849109354228669843678
1.703514768171167981236636 0.02716982187084618360906063 0.8306845900420141148856601
1.707029536342335784837587 0.0008660248798488834895761834 0.8350701427642548413388113
1.703514768171167981236636 -0.02543777211114841077521653 0.8306845900420141148856601
0.9559037961332680355397429 -0.04298681867707779963305725 0.8988906148103456006381862
0.9546159758511154613813687 -0.01187225572305298723629896 0.8977812296206912900942143
0.9559037961332679245174404 0.01924230723097183209935324 0.8988906148103456006381862
0.9516682238226186196783374 -0.04934950817129941241789837 0.8510342398806335362237974
0.9521436250702877135410063 -0.04713073779199089541336321 0.8665915213576458331345975
0.9542155846277442510228184 -0.0477812296206914788321285 0.8829329421099620933688357
0.9521436250702877135410063 0.04713073779199090929115101 0.8665915213576458331345975
0.9542155846277442510228184 0.0477812296206914927099163 0.8829329421099620933688357
0.9516682238226186196783374 0.04934950817129941935679227 0.8510342398806335362237974
0.9515932137983205141296139 -0.0480815402873291108942766 0.8503252459143502139937709
0.9512844757706858667134497 -0.01539869878269636317702496 0.8506504918287005612143048
0.9515932137983205141296139 0.01728414272193638800967364 0.8503252459143502139937709
0.9517598770183549605761186 0.01444789628735815463500547 0.8662077733057129691474074
0.9525440162936589238995566 -0.01601617483796607607771101 0.8814398088683750298599762
1.746815493781113559634832 -0.008478840473736856675479601 0.8572784193153510923224303
1.748407746890556779817416 0.02166998664071014338294852 0.8597800793023729903907793
1.748407746890556779817416 -0.03862766758818385326446077 0.8597800793023728793684768
1.743011401927654802079815 -0.04681549378111366649379832 0.8556861662059078721398464
1.743011401927654802079815 0.04681549378111367343269222 0.8556861662059080941844513
1.741419148818211581897231 -0.0166666666666666594964763 0.8531845062188863071384048
1.737615056964752824342213 0.002689470521976045948309153 0.8515922531094430869558209
1.737615056964752824342213 0.03602280385530937795168782 0.8515922531094430869558209
1.786829809492545440008371 -0.006718861131360727434458369 0.8935486706239061938106261
1.778091898810413074016878 0.01371181344978525395994495 0.8870973412478124764390941
1.786829809492545440008371 0.03414248803093123535434827 0.8935486706239061938106261
1.771640569434319800734556 -0.03709734124781265129922048 0.880975917053704482562182
1.771640569434319800734556 0.03709734124781265129922048 0.880975917053704482562182
1.756451329376093717371532 0.01195183410740911951475329 0.8684031634835026602914354
1.762902658752187434743064 -0.008478840473736863614373505 0.87452458767761076519065
1.756451329376093717371532 -0.02890951505488284500877683 0.8684031634835026602914354
0.9707978862769698347179315 -0.0249993362696026739933064 0.9457972225465722804216284
0.9667031093186260193306225 -7.155784312430518733817719e-05 0.9415944450931448272967828
0.9707978862769698347179315 0.02485622058335406128759537 0.9457972225465722804216284
0.9580156620156971003510193 -0.04620406449129954573606938 0.9056184565438899491951474
0.9598212339973175577512166 -0.037798509584444570097439 0.9180823457571292145473763
0.9662208206547386879492478 -0.04159444509314502713692718 0.9328510446694455726657225
0.9598212339973175577512166 0.03779850958444459091412071 0.9180823457571293255696787
0.9662208206547386879492478 0.04159444509314504101471499 0.9328510446694455726657225
0.9580156620156971003510193 0.04620406449129955267496328 0.9056184565438900602174499
0.9566923786979639743321968 -0.04140965354768586653699813 0.9018979677543500494962814
0.9561931409805073389662766 -0.01187225572305298376685201 0.9037959355087004098550096
0.9566923786979639743321968 0.01766514210157989206440021 0.9018979677543500494962814
0.9579987129621280184110788 0.008261111759811715082868488 0.9162598247219394531626335
0.9603035226612051111771962 -0.01287073115796620072226464 0.9268257461808284691784365
1.798956427707384841951921 -0.01387784699710470533162709 0.9024379821273958990346387
1.799478213853692221135816 0.01841191404361361069752512 0.9033106058158694162685265
1.799478213853692221135816 -0.04616760803782302136077931 0.903310605815869305246224
1.798000787245251474999463 -0.04895642770738498766869284 0.9019161959810882978061386
1.798000787245251474999463 0.04895642770738498072979894 0.9019161959810884088284411
1.797479001098944095815568 -0.01666666666666667337426411 0.9010435722926148915945532
1.796523360636810950907716 0.01266824115717022844473938 0.9005217861463075124106581
1.796523360636810950907716 0.04600157449050357172382064 0.9005217861463075124106581
1.83564265626845202206141 -0.006716432757974366909992092 0.9423590890264259556374782
1.829282694594586589076357 0.01133507862821132861075313 0.9347181780528521777284823
1.83564265626845202206141 0.02938659001439703627456268 0.9423590890264259556374782
1.821641783621013033211966 -0.03471817805285237756862671 0.9270868321945402446004891
1.821641783621013033211966 0.0347181780528523636908389 0.9270868321945402446004891
1.807640910973573600273312 0.004173664389080998862735505 0.9118145753626546445858025
1.815281821947147600226913 -0.01387784699710471053579752 0.9194459212209664666914932
1.807640910973573600273312 -0.03192935838329041126071317 0.9118145753626546445858025
0.9914239835928123634190001 0.00635117284480288778192314 0.9700849361629224620884315
0.9957119917964061261983488 0.03110848977094837763957003 0.977305847715063458203133
0.9957119917964061261983488 -0.01840614408134258819793594 0.9773058477150633471808305
0.987342879541510676233429 -0.04142398359281214414995276 0.9657969279593283662421754
0.9873428795415107872557314 0.04142398359281214414995276 0.9657969279593286993090828
0.9830548713379168024317778 -0.01666666666666667684371106 0.9585760164071877031943814
0.9789737672866152262685091 -0.00864757425031217191735422 0.9542880082035939404150326
0.9789737672866152262685091 0.02468575908302116095338619 0.9542880082035939404150326
1.010451219195983352250323 -0.0380047399514851363955259 0.9984559591474684303591403
1.007541670876789252631056 -0.007759488323215003521826638 0.9969119182949368607182805
1.010451219195983352250323 0.02248576330505513282131957 0.9984559591474684303591403
1.005997630024257460945591 -0.04691191829493680798268684 0.9932982122365363597538135
1.005997630024257682990196 0.04691191829493680798268684 0.9932982122365365817984184
1.001544040852531791685465 0.0365964244730730275945163 0.9881404653256045111930916
1.003088081705063361326324 0.006351172844802893853455306 0.9917541713840047901129537
1.00154404085253156964086 -0.02389407878346724162232917 0.9881404653256045111930916
1.847948027057911390969025 -0.009372056837778404078664884 0.9556992778565327473216939
1.848974013528955850915736 0.02190930355346608696121002 0.9583205962999326033013858
1.848974013528956072960341 -0.04065341722902289511853979 0.9583205962999326033013858
1.846308219509728232310408 -0.04794802705791115920996859 0.9546732913854883983972854
1.846308219509728232310408 0.04794802705791116614886249 0.9546732913854883983972854
1.845282233038683772363697 -0.0166666666666666594964763 0.952051972942088653439896
1.84364242549050061370508 0.009283105686122500657675438 0.951025986471044193493185
1.84364242549050061370508 0.04261643901945583873258627 0.951025986471044193493185
1.870829763928074207512964 -0.02494066026668447302871989 0.9957704241947583634342323
1.866759245671899325458298 -6.647854383401777256246135e-05 0.9915408483895170599353719
1.870829763928073763423754 0.02480770317901643401414802 0.9957704241947583634342323
1.862529669866658021959438 -0.04154084838951711822208068 0.9827510624425359608835606
1.862529669866657799914833 0.04154084838951712516097459 0.9827510624425359608835606
1.854229575805241836405912 0.01550212488507204423859864 0.9697317006903133362882841
1.858459151610483139904773 -0.009372056837778409282835312 0.9785214866372944353400953
1.854229575805241836405912 -0.03424623856062886106954579 0.9697317006903133362882841
1.040009923806829217340919 0.005226780154250598720011567 1.020936799603629374644242
1.045004961903414519852618 0.02857003729441308717551529 1.026888484917502619708785
1.045004961903414519852618 -0.0181164769859118932049391 1.026888484917502619708785
1.032791884408473581657972 -0.04000992380682914795198002 1.015941761507043850087939
1.032791884408474025747182 0.04000992380682916182976783 1.015941761507043850087939
1.027796846311888501190879 -0.01666666666666665602702935 1.009990076193170605023397
1.020578806913533087552537 -0.01774956451638583579399899 1.004995038096585302511699
1.020578806913533087552537 0.01558376881694750228091184 1.004995038096585302511699