# geometry NO_DATA 844
#  x  y  z
1.04275773088990320047742 0.006546385339418843776759793 0.6137886544495156915246525
1.035515461779806134501314 -0.01666666666666665602702935 0.6210309235596126464784561
1.04275773088990320047742 -0.02678694799391448735925714 0.6137886544495156915246525
1.019231703884725392939004 -0.01590084912349479934201568 0.6355154617798063343414583
1.010190215099741495308194 -0.0347496442366344512886478 0.6427577308899030672506569
1.010190215099741717352799 0.002947945989644843063637314 0.6427577308899030672506569
1.028273192669709290569813 -0.03551546177980630797366146 0.6137886544495156915246525
1.011989434774628549007502 -0.03551546177980631491255537 0.6282731926697092683653523
1.011989434774628549007502 0.03551546177980632185144927 0.6282731926697093793876547
1.028273192669709290569813 0.03551546177980631491255537 0.6137886544495155805023501
1.092137914069788884319223 0.002827484418733257169609185 0.6106895703489444438005762
1.084275828139577679820604 -0.01666666666666666296592325 0.618551656279155648299195
1.092137914069788884319223 -0.03050584891460007830321643 0.6106895703489444438005762
1.074851430583007694252728 -0.002182128446472852804915998 0.6270335590294809913203267
1.073289118956649135228076 0.0009424948062443931802445451 0.6276533758495952408651419
1.076413742209366475321985 -0.03427582813957772561730408 0.6106895703489444438005762
1.066046849846552291296575 -0.01979128991938390938476466 0.6204111067394983969336408
1.059747075542699867867213 -0.03427582813957772561730408 0.6119292039891730539125092
1.066989344652796711798715 0.01979128991938391632365857 0.6191714730992697868217078
1.058184763916341086797956 0.03551546177980619001246509 0.612549020809287192435022
1.076413742209366475321985 0.03427582813957773255619799 0.6106895703489444438005762
1.057242269110096666295817 0.006546385339418718009307785 0.6137886544495156915246525
1.064484538220193510227318 -0.0123024097737208099045958 0.6210309235596126464784561
1.057242269110096888340422 -0.03115120488686032654279678 0.6137886544495156915246525
1.142023636759193161438475 0.002141820555158203704532172 0.6101181837959652742853223
1.134047273518385967605582 -0.01666666666666666990481716 0.6180945470367721350513079
1.142023636759193161438475 -0.0311915127781751295998891 0.6101181837959652742853223
1.125242692781930564649429 -0.0009424948062443308386196272 0.6261851875881748741292654
1.124414475286282133481564 0.0007139401850526710339300829 0.6262994648987707524412372
1.126070910277579217861899 -0.03404727351838601062672396 0.6101181837959651632630198
1.116552389356070928982945 -0.01832310165796367101842534 0.6184373789685597699872233
1.109404243610912388362522 -0.03404727351838601062672396 0.6103467384171568088646609
1.11726632954112359286114 0.01832310165796366407953144 0.6182088243473680133632797
1.108576026115263957194657 0.03427582813957765622836504 0.6104610157277527981989351
1.126070910277579217861899 0.03404727351838601756561786 0.6101181837959652742853223
1.107862085930211293316461 0.002827484418733182576499718 0.6106895703489443327782737
1.115724171860422275770475 -0.01478167705417780981858034 0.6185516562791555372768926
1.107862085930211071271856 -0.03239083852708879440740475 0.6106895703489444438005762
1.192002959298438469204484 0.002017755790598230528076762 0.6100147964921598386922597
1.184005918596876760773284 -0.01666666666666666990481716 0.6180118371937376453573165
1.192002959298438469204484 -0.03131557754273510407738712 0.6100147964921598386922597
1.1753156151710171251068 -0.0007139401850526517351314126 0.6260295553560699666206801
1.174622352446719197871516 0.0006725852635435372118069552 0.6260502328168244812189869
1.176008877895315274386689 -0.03400591859687687040780801 0.6100147964921761589707216
1.166645989205912004038623 -0.01805319211526285397284575 0.6180738695760175094306987
1.159342211228648888976522 -0.03400591859687686346891411 0.6100561514137016194680996
1.16731857446945586076481 0.0180531921152628574422927 0.6180325146545084802340853
1.158648948504350961741238 0.03404727351838598981004225 0.6100768288744561340664063
1.176008877895315496431294 0.03400591859687687734670192 0.6100147964921761589707216
1.157976363240807105015051 0.002141820555158178984722639 0.6101181837959652742853223
1.165952726481613854758734 -0.01523878629656114265522593 0.6180945470367721350513079
1.157976363240807105015051 -0.03261939314828045388683364 0.6101181837959652742853223
1.242031264559587011575559 0.002187587357351736695038058 0.610156322797764549825672
1.234062529119174245195723 -0.01666666666666666990481716 0.6181250582382630254230094
1.242031264559587011575559 -0.03114574597598160354827712 0.6101563227977644388033696
1.225392903154082446803841 -0.0006725852635174631253406341 0.6260654884175997914042
1.224692012629402970702586 0.0007291957858411223999950401 0.6260371831564379707657508
1.226093793678772359001528 -0.03406252911917446307699109 0.6101563227978610282065119
1.2166949719278283836843 -0.01806844771602525434595066 0.6180401424548732647323845
1.209427127012105529502151 -0.03406252911917445613809718 0.6100997122756330881543363
1.217424167713680116520436 0.01806844771602525434595066 0.6180967529771976831654001
1.208726236487426053400895 0.03400591859685080098341103 0.6100714070144712675158871
1.226093793678772359001528 0.03406252911917445613809718 0.6101563227978610282065119
1.207997040701574542609364 0.002017755790572159368956306 0.6100147964921467380605691
1.215994081403148907583045 -0.01532149613961197344436105 0.6180118371937114440939354
1.207997040701574542609364 -0.03266074806979610972712535 0.6100147964921467380605691
1.292135903168065924617736 0.002815419007940035342474339 0.6106795158398737877192275
1.284271806336132470960365 -0.01666666666666667684371106 0.6185436126720362803865783
1.292135903168065924617736 -0.0305179143253933027324365 0.6106795158398737877192275
1.2755738751099494621144 -0.0007291957856992716761196371 0.6263030708956487391247947
1.274740040715700128970411 0.0009384730027991979375845411 0.6261984322870988162179628
1.276407709504269849531966 -0.03427180633613255422709187 0.6106795158401736589581787
1.266771305275216530361604 -0.01833433545516514537321306 0.6182296968466711728495966
1.259741042837603242077193 -0.03427180633613255422709187 0.6104702386233586963726339
1.267709778278086840686001 0.01833433545516513149542526 0.6184389740637863397410001
1.258907208443353908933204 0.03406252911903259739112571 0.6103656000148086624434995
1.276407709504269849531966 0.03427180633613254034930407 0.6106795158401736589581787
1.257968735440483598608807 0.002187587357209874912300496 0.6101563227976936065743985
1.265937470880967197217615 -0.0152082750951560603802637 0.6181250582381212499427647
1.257968735440483598608807 -0.03260413754752198439712529 0.6101563227976936065743985
1.34251363416504898573578 0.005081804989497691778244093 0.6125681708244490319970055
1.335027268330097438564508 -0.0166666666666666664353702 0.6200545366597973728772786
1.34251363416504898573578 -0.02825152834383564195985805 0.6125681708244490319970055
1.326224698495565901268378 -0.0009384730023962982187885062 0.6271631714979619687255763
1.324908494495985689098916 0.001693934996763942673128622 0.6267854405007781126712985
1.327540902495445429565279 -0.03502726833009728313328424 0.6125681708251452528557479
1.317044397663850396895668 -0.01929907466582691383250037 0.6189213436688172365052196
1.310874235828778378021298 -0.03502726833009729007217814 0.6118127088313488615156643
1.318738332660913670224545 0.01929907466582690689360646 0.6196768056633099597263481
1.30955803182919838789644 0.03427180633572962653587979 0.6114349778341650054613865
1.327540902495445429565279 0.03502726833009728313328424 0.6125681708251453638780504
1.307864096832135114567564 0.002815419007537120661688324 0.610679515839672282240258
1.315728193664270406770811 -0.01478972066152584204090648 0.6185436126716333804509418
1.307864096832135114567564 -0.03239486033058880387613954 0.610679515839672282240258
1.394858470230175173654175 0.01915082138047603452224443 0.6242923511503010169931827
1.389716940460350436126191 -0.0166666666666666664353702 0.6294338809204130802399391
1.394858470230175173654175 -0.01418251195285729834849597 0.6242923511503010169931827
1.380536639629021067321446 -0.001693934995992030624958891 0.632230574625012864409257
1.376497868567516436044684 0.006383607127016787188833469 0.629885738559500474309516
1.384575410691495367387915 -0.0397169404603501252637443 0.6242923511515583445685706
1.369011502732179197394657 -0.02474420878967548143023691 0.6223993727245380469526026
1.367908744024829204022353 -0.0397169404603501183248504 0.6196026790211955903586727
1.37539510986016644267238 0.02474420878967548836913082 0.6270890448561581287378885
1.363869972963324572745591 0.03502726832932536588094408 0.6172578429556832002589317
1.384575410691495367387915 0.0397169404603501252637443 0.6242923511515583445685706
1.357486365835337771557079 0.005081804988725774525903933 0.6125681708240631184736458
1.364972731670675010207106 -0.01327879667393292231758473 0.6200545366590256568528616
1.357486365835337327467869 -0.0316393983365916148242647 0.6125681708240631184736458
1.425707648845935482384562 -0.01915082138381012100136758 0.6448584702297455173436447
1.420566119078349398563432 0.003899452409014241179019411 0.6397169404594911235051313
1.425707648845935482384562 0.02694972620183859815523597 0.6448584702297455173436447
1.415424589308095004724919 -0.03971694045949102080950155 0.6345754106898084945242999
1.415424589308095004724919 0.03971694045949102774839545 0.6345754106898084945242999
1.405141529770254749109881 0.01915082137961694047634253 0.6242923511498714717049552
1.410283059540509142948395 -0.003899452413207417367235763 0.6294338809195539896634841
1.405141529770254749109881 -0.02694972620603178214970796 0.6242923511498714717049552
0.9429236389031796505832972 0.007541833419078250791423024 0.6646181945158985415744723
0.9358472778063593455755154 -0.01666666666666664561868849 0.6716945556127187355599517
0.9429236389031796505832972 -0.02579149991425508381404086 0.6646181945158985415744723
0.9216945556127187355599517 -0.01163877772061444257345464 0.6858472778063592345532129
0.9146181945158984305521699 -0.03081938886030709603969235 0.6929236389031796505832972
0.9146181945158985415744723 0.007541833419078195280271792 0.6929236389031796505832972
0.9287709167095390405677335 -0.03584727780635929561547925 0.6646181945158985415744723
0.9146181945158984305521699 -0.03584727780635929561547925 0.6787709167095390405677335
0.9146181945158984305521699 0.03584727780635932337105487 0.678770916709539151590036
0.9287709167095390405677335 0.03584727780635932337105487 0.6646181945158985415744723
0.9919367862080656905732212 0.0007136301088743774324180125 0.6587768439008085952224292
0.9838735724161313811464424 -0.01666666666666667684371106 0.6672936012625029222888884
0.9919367862080656905732212 -0.03261970322445895825724804 0.6587768439008085952224292
0.9742832668462850786994522 -0.002513944473025859095011159 0.6767972113193110317297396
0.9727561750683731967015433 0.0005402390827980507259989396 0.6777840640144248141041317
0.9758103586241971827419661 -0.03387357241613140473868171 0.6592303874705686128621096
0.965679813971552780671459 -0.01972085022249058308685399 0.6707077029176047311409548
0.9591436919575304642648916 -0.03387357241613139779978781 0.6616576364305566393397839
0.9662200530543509913172784 0.01972085022249056920906618 0.6687339975273768333252633
0.9576166001796184712446802 0.03584727780635917765428289 0.662644489125670421714176
0.9758103586241971827419661 0.03387357241613139779978781 0.6592303874705686128621096
0.9570763610968203716211633 0.007541833419078103339927566 0.6646181945158984305521699
0.9641527221936407876512476 -0.01163877772061441481787902 0.6716945556127186245376492
0.9570763610968203716211633 -0.0308193888603069190978978 0.6646181945158984305521699
1.000943826238345879531266 -0.04897246997049191363782228 0.6505609174667599248209626
1.0005609174667597915942 -0.04897246997049190669892837 0.6506476129797980068047991
1.0005609174667597915942 0.04897246997049191363782228 0.6506476129797980068047991
1.000943826238345879531266 0.04897246997049191363782228 0.6505609174667599248209626
1.001279582557925929009457 -0.04820665242732005695280861 0.6505137650147539973843891
1.001410438801094038296924 -0.01590084912349480975035654 0.6510275300295080835866202
1.001279582557925929009457 0.01640495418033043398264859 0.6505137650147539973843891
1.001027530029507950359857 -0.01649327564059035328147829 0.6511142255425461655704567
1.000513765014753975179929 0.01581252766323489045152684 0.6506871560408302723743645
1.000513765014753975179929 -0.04879907894441559701448341 0.6506871560408302723743645
1.441901412493136191983467 0.001408474958135061145397815 0.6595070624649991275489924
1.43380282498627220633125 -0.01666666666666665602702935 0.6676056499722037296251642
1.441901412493136191983467 -0.0319248583751982617506826 0.6595070624649991275489924
1.425300092266912344030061 -0.000338798772052828099307642 0.6756388910389654611776677
1.424895947054416689425693 0.0004694916529387433237231753 0.675573544598522479631697
1.423992668465093647256481 -0.02351976545137150764741563 0.6637096089272531695968382
1.435517805364309840143733 -0.03380282498627205922669958 0.6590375708124009968003065
1.421873542874560136795026 -0.007191897556757672130278713 0.6722123416466130318980277
1.421873542874560136795026 0.007191897556757688610151735 0.6722123416466129208757252
1.423992668465093647256481 0.02351976545137151458630953 0.6637096089272531695968382
1.435517805364309840143733 0.03380282498627207310448739 0.6590375708124009968003065
1.425707648843131281068963 -0.01915082138941853751035183 0.6551415297674503257496781
1.420566119072741217976841 0.003899452409014242480062018 0.6602830595349007403171981
1.425707648843131281068963 0.02694972620744701813366717 0.6551415297674503257496781
1.418446993482207929559991 0.0003387987720528441997099034 0.6687857922542606026183876
1.421469397662064482190658 -0.006383607131766101845660177 0.6721469952061700503520569
1.492108968516696165806934 0.002653811099573037159127242 0.660544842582876823300353
1.484217937033392331613868 -0.01666666666666667684371106 0.668435874066482638156117
1.492108968516696165806934 -0.03067952223376030351786881 0.660544842582876823300353
1.475649857873662540441728 -0.0004694916527930056808493031 0.6761193495264553599000124
1.474972810197236583462654 0.0008846037000588598134612206 0.6759117935028223778104461
1.476326905549730783562268 -0.0342179370333922025504414 0.6605448425828210901045168
1.466874222690299767180022 -0.01802076201951853529070746 0.6678132059956907173869922
1.459660238883063954062891 -0.03421793703339219561154749 0.6601297305356621514249582
1.467758826390000770345523 0.01802076201951852141291965 0.6682283180427937008261097
1.458983191206637997083817 0.03380282498612632163803582 0.659922174512029169335392
1.476326905549730561517663 0.03421793703339219561154749 0.6605448425828210901045168
1.458098587506936549829106 0.001408474957989317268361451 0.6595070624649261858962745
1.466197175013873810200948 -0.01572768336147034595740024 0.667605649972057735297426
1.458098587506936993918316 -0.0328638416809299976906189 0.6595070624649261858962745
1.543356150988675956625684 0.01013690593133228547151337 0.6667807549426565394412592
1.536712301977351424753238 -0.01666666666666667337426411 0.673424603954341671752104
1.543356150988675512536474 -0.02319642740200104219505661 0.6667807549426565394412592
1.527936666793987763313112 -0.000884603700060494465076677 0.6788212704940481678761444
1.525804880621948189656223 0.003378968644017946599406033 0.6775740880220695316893398
1.53006845296505122888675 -0.03671230197735130679204119 0.6667807549420416979302217
1.517913849138645687730786 -0.02093023901074513026809853 0.6696830565384629396774585
1.513401786298384621431978 -0.03671230197735131373093509 0.6642863899981416020423808
1.52129281778168778949123 0.02093023901074509557362902 0.6721774214817479720096571
1.511270000126345269819694 0.0342179370333938054349332 0.6630392075261628548332737
1.530068452965051450931355 0.03671230197735129291425338 0.6667807549420415869079193
1.507891031483303168059251 0.002653811099574641344661652 0.6605448425828777114787727
1.515782062966606114073898 -0.01489745926715251196637002 0.6684358740664841924683515
1.507891031483303168059251 -0.03244872963387965270065649 0.6605448425828777114787727
1.583244720057441767835371 -0.01011143093139709077388222 0.6933561509888389595701597
1.576588133545462344642374 0.009934204379614078317395354 0.6867123019776777415046354
1.583244720057441767835371 0.0299798396906252491433964 0.6933561509888388485478572
1.569944284534301459643757 -0.03671230197767783726137125 0.6800684529658294064091706
1.569944284534301459643757 0.03671230197767783726137125 0.6800684529658292953868681
1.556643849011161151452143 0.01013690593165882808390776 0.6667807549428197422258791
1.56328769802232203645076 -0.009908729379352346211540237 0.6734246039546682993659488
1.556643849011161151452143 -0.02995436469036351703754129 0.6667807549428197422258791
0.9278489984256609313106878 0.0006701079052689193696346059 0.7228211094796078706181675
0.9269270801417821559198273 -0.002513944473026399027693056 0.7244131356687556477780277
0.9180068824771983049259916 -0.01532645085614121535644294 0.7340034412386021722696228
0.9100086030964931183007138 -0.03266322542807680029408601 0.7420017206193010306236602
0.9100086030964932293230163 0.002010323715794387795796627 0.7420017206193010306236602
0.9189288007610831865434875 -0.01985071904496198830214482 0.7164148562880565673793853
0.9127743579481413238596588 -0.0358472778063597258269013 0.7077464690020889293009532
0.9100086030964993355496517 -0.03400344123860225831190718 0.7260051618579030918709805
0.9100086030964993355496517 0.03400344123860226525080108 0.7260051618579033139155854
0.9207726373288404042583011 0.01985071904496198136325091 0.715744748382787898677293
0.9118524396642626594911007 0.03400344123860226525080108 0.7093384951912367064608134
0.9216945556127191796491616 -0.01666666666666666990481716 0.7141527221936401215174328
0.9146181945158986525967748 -0.02579149991425474033879262 0.7070763610968199275319535
0.9146181945158986525967748 0.007541833419078592531947791 0.7070763610968200385542559
1.591963158201052275231291 0.00179546138863876476518544 0.709832303187586277637422
1.58392631640210490573395 -0.01666666666666664908813544 0.7178608888953719180392454
1.591963158201052275231291 -0.0315378719446945676718741 0.709832303187586277637422
1.575428167196755824264187 -0.0003296317440310943193589044 0.7257577989407872909310981
1.574966859790354556380976 0.0005929830687715739907794887 0.7256261232784170234211274
1.578599657875852546595752 -0.02058752143211788759868952 0.715299222352712704697808
1.588596927057525975968133 -0.03392631640210487520281646 0.7092310640276526800818147
1.573467739814030430522962 -0.004250486509482330824138963 0.7237973715580615641229656
1.573467739814030430522962 0.004250486509482368120693696 0.7237973715580615641229656
1.578599657875853212729567 0.02058752143211791188481818 0.715299222352712704697808
1.588596927057525975968133 0.03392631640210488908060427 0.7092310640276526800818147
1.58327026853127383887454 -0.01006033398373226001032421 0.7066693974849935777626797
1.576639230493127152854527 0.009934204379614092195183161 0.7133387949699869778896755
1.58327026853127428296375 0.02992874274296043052290273 0.7066693974849933557180748
1.571507312431304592692527 0.0003296317440311322122248328 0.721836944175336059359438
1.573006432407628718550541 -0.003327871696679662351370244 0.7236656958956914076352973
1.642709587932667858467539 0.006257527595921307667081734 0.71354793966325336107559
1.635419175865335361663711 -0.01666666666666664908813544 0.7208383517306284904435643
1.642709587932667858467539 -0.02707580573741202173421172 0.71354793966325336107559
1.626783847879023969795753 -0.0006039893059564668473249149 0.7273878371849804569393427
1.62543893196004440859781 0.002085842532002325083739791 0.7266469105719576271340543
1.628120138886883783158055 -0.03541917586533561979056373 0.7135393147521768009156062
1.6174075932796894150556 -0.01935649850462544188656189 0.7186128217455796107770993
1.611453472220216953658678 -0.03541917586533561979056373 0.7120547113801507510544297
1.619484810900571947200888 0.0193564985046254696421375 0.7200888002065287674113847
1.610108556301237614505339 0.03393732263928982140210877 0.7113137847671279212491413
1.628120138886883783158055 0.03541917586533564060724544 0.7135393147521768009156062
1.608031338680354860315447 0.001806467625823699688775159 0.7098378063061787646148559
1.616062677360710075902261 -0.0154641883467994470380269 0.7178718951325567809718109
1.608031338680354860315447 -0.03273484431942260547421242 0.7098378063061787646148559
1.686796735482207987288916 -0.005912852450464929805751257 0.7427095879326728322666895
1.679333985842094367768595 0.01283965674821410662964638 0.735419175865345664533379
1.686796735482207987288916 0.03159216594689312485044752 0.7427095879326728322666895
1.672043573774767644124495 -0.03541917586534568118672439 0.7281287637979656501840964
1.672043573774767644124495 0.0354191758653457020034061 0.7281287637979656501840964
1.657290412067327078915469 0.006257527595931365593795448 0.7135479396632584681015032
1.664580824134654024604174 -0.0124949816027476595658996 0.7208383517306384824507859
1.657290412067327078915469 -0.03124749080142669166448854 0.7135479396632584681015032
0.9258679286482434100946648 0.0003956414859534464981832835 0.7745277128377098252443034
0.9257306954385866593071341 -0.0006701079052668689264860014 0.7750605875333198557797232
0.9174579496385599775010178 -0.01587538369478631167242 0.7837289748192866056797357
0.9093224370481901575047345 -0.03293769184740639316411048 0.7918644874096433250443283
0.9093224370481901575047345 0.001186924457833742063694871 0.7918644874096433250443283
0.9175951828482276084741898 -0.01773241605788694955081475 0.7669250749429608049467788
0.9097341366771802828594673 -0.03400344123860022521599333 0.758393920866650805834297
0.9093224370482009266680734 -0.03372897481928671670203812 0.7755934622289274438244888
0.9093224370482009266680734 0.03372897481928675139650764 0.7755934622289275548467913
0.9178696492675394447147141 0.01773241605788701547030684 0.7665294334570098566672414
0.9095969034675235320719366 0.03372897481928675139650764 0.7589267955622608363697168
0.9180068824771960844799423 -0.01666666666666663521034764 0.7659965587613998261318216
0.9100086030964920080776892 -0.03132300961754094087430289 0.7579982793806998575547595
0.9100086030964920080776892 0.002010323715792391996437516 0.7579982793806998575547595
1.691886721765740952960755 0.001698804814845671995807153 0.7598120830491047472676769
1.683773443531481728285826 -0.01666666666666666990481716 0.7677361241731636143370565
1.691886721765740952960755 -0.03163452851848766456122064 0.7598120830491047472676769
1.675339929782701187122029 -0.0002003608308943188019181358 0.7755402906135954177457847
1.675019694268179870633162 0.0004401101981483132000345926 0.7754204159299684651074358
1.680954308273085118230483 -0.0184779272650073232708845 0.7662011465656446418392989
1.689973216806514688670404 -0.03377344353148165057021401 0.7591827357407561205349111
1.674434299483531063401642 -0.00201162142923497645058406 0.7746346603144251830030953
1.674434299483531063401642 0.002011621429234982522116226 0.7746346603144249609584904
1.680954308273085118230483 0.0184779272650073302097784 0.7662011465656446418392989
1.689973216806514688670404 0.03377344353148165057021401 0.7591827357407560095126087
1.687154081548118078615062 -0.005198160318644920625807959 0.7576477581332371480371535
1.680048677973914772465491 0.01283965674821409622130552 0.7652955162664742960743069
1.687154081548118078615062 0.03087747381507310873161032 0.7576477581332371480371535
1.67352866918436071763665 0.0002003608308943249547654647 0.7737290300152547262158009
1.67411406396900952486817 -0.001371150400192344773891984 0.7745147856307981193424439
1.743517992245725345412666 0.01110795347434921989671075 0.7675899612286238848923858
1.737035984491450690825332 -0.01666666666666666296592325 0.7740719689828999827696521
1.743517992245725345412666 -0.02222537985898411297402966 0.7675899612286238848923858
1.72835692651275873998884 -0.0006914492907172137704102655 0.7790483758034759675936698
1.726159876288341443739682 0.003702651158117400628788651 0.7775427748697758545404213
1.730279461835035892391943 -0.03703598449145072135646473 0.767315446326485295358566
1.718172267600366787121402 -0.02106076711550127628092 0.7694930641994326414589978
1.713612795168369284937171 -0.03703598449145073523425253 0.7642421424767180671011602
1.721600403856344385644661 0.0210607671155012832198139 0.7722918531470612801825837
1.711415744943952432777223 0.03402478262405055770001283 0.7627365415430179540479116
1.730279461835035892391943 0.03703598449145072135646473 0.767315446326485295358566
1.707987608687974834253964 0.001950143907414586931861611 0.7599377525953890932797208
1.715975217375949490872244 -0.01540797204996929847808929 0.7679874632657324173834468
1.707987608687974834253964 -0.03276608800735319321217887 0.7599377525953892043020232
1.782410038771372384758251 -0.01110795347435324965934544 0.7935179922457253898215868
1.775928031017097730170917 0.009261364350431098430016519 0.7870359844914510683011599
1.782410038771371940669042 0.02963068217521544478465501 0.7935179922457256118661917
1.769446023262823297628188 -0.03703598449145100585111479 0.7805539767371746373569863
1.769446023262823075583583 0.03703598449145101279000869 0.7805539767371747483792888
1.756482007754274210498124 0.01110795347434951479970167 0.7675899612286239959146883
1.762964015508548643040854 -0.009261364350434831554936821 0.7740719689829003158365595
1.756482007754274210498124 -0.02963068217521918137902226 0.7675899612286239959146883
0.9255688973711235778552009 0.0003465117703383160615605851 0.8247776143992142650063215
0.925544332513315248789354 -0.0003956414859545563959472569 0.8251486910273607700005982
0.9173564243060694511910924 -0.01598017492853769094818261 0.8336798451036715462691973
0.9091930809566314275471655 -0.03299335336554270331488325 0.8418399225518357065212172
0.9091930809566314275471655 0.001033003508467349174093641 0.8418399225518357065212172
0.9173842550651386540394583 -0.01740881992295956887106811 0.8169886135791841752507025
0.9092733073325762749306023 -0.03372897481928786161953226 0.8084820243606817280479504
0.9091963468578925233742893 -0.03367984510367170308819951 0.8255197676554948404969991
0.9091963468578925233742893 0.0336798451036716822715178 0.8255197676554948404969991
0.9174333847807530917251029 0.01740881992295951335991688 0.8166421018088583227978461
0.9092487424747682789316627 0.0336798451036716822715178 0.8088531009888282330422271
0.9174579496385610877240424 -0.01666666666666669419094582 0.8162710251807118178035694
0.9093224370481907126162469 -0.03214640887549850833959653 0.8081355125903559866173964
0.9093224370481907126162469 0.001186924457834825398505618 0.8081355125903559866173964
1.792500233317758873141656 0.005001399906557114222183102 0.8125011665887976741728949
1.785000466635518368008206 -0.01666666666666666990481716 0.8200009332710381793063448
1.792500233317758873141656 -0.02833193342677621517911035 0.8125011665887976741728949
1.776452498476009722594426 -0.0004292696523506041176090897 0.8268817681283608944653452
1.775404296998741360269491 0.001667133302185709944898129 0.8262628363034433265355005
1.778612923247248733815695 -0.02203645112697021762881988 0.8156489077387005792729724
1.788797582159641352816948 -0.03500046663551904801980896 0.8108340332866119659627202
1.773767606245857830771229 -0.005799054112654149564787254 0.8241968758982092246867523
1.773767606245857830771229 0.005799054112654121809211638 0.8241968758982092246867523
1.778612923247248733815695 0.02203645112697019681213817 0.8156489077387005792729724
1.788797582159641352816948 0.03500046663551904801980896 0.8108340332866120769850227
1.782410038771371718624437 -0.01110795347435340231501133 0.8064820077542744769516503
1.775928031017097286081707 0.009261364350431077613334807 0.8129640155085487984720771
1.782410038771371718624437 0.02963068217521557315419223 0.8064820077542744769516503
1.771082714015706160992636 0.0004292696523505758199323878 0.8215119836680574438858571
1.772719404768589912535504 -0.003702651158117836911742859 0.8235779440732915457346053
1.837498833411202570076171 -0.005001399906557173202781286 0.8425002333177595836843921
1.829999066728962064942721 0.01333240006229520838165747 0.8350004666355190785509421
1.837498833411202570076171 0.03166620003114760384388404 0.8425002333177595836843921
1.822499300046721559809271 -0.03500046663551905495870287 0.8275006999532786844397947
1.822499300046721337764666 0.03500046663551904801980896 0.8275006999532786844397947
1.807499766682240327497766 0.00500139990655711508954484 0.8125011665887976741728949
1.814999533364480832631216 -0.01333240006229527777059651 0.8200009332710381793063448
1.807499766682240327497766 -0.03166620003114765935503527 0.8125011665887976741728949
0.9255207751734452203962178 0.0003746697109373403567975092 0.8748538945374921826925174
0.9255413898699256236568544 -0.000333440317976501526299471 0.875207949551949138111695
0.9174268946184200856919233 -0.01589555018503454458800306 0.8837080030442706624072002
0.9092917846704341444663555 -0.03293688656263853847816492 0.8918540015221353423058304
0.9092917846704341444663555 0.001145786192569437592775339 0.8918540015221353423058304
0.9174063807566756878486558 -0.01737477669558049400699851 0.8670729404386989802588914
0.9092289584369380728290366 -0.03366677365130985033481181 0.8585522722498970527027495
0.9092918855051701498837247 -0.0337080030442706429782973 0.8755729939310206155766991
0.9092918855051701498837247 0.03370800304427066379497901 0.8755729939310206155766991