# geometry NO_DATA 580
#  x  y  z
0.4429125735760708892918558 0.007475441456425639674687744 0.2645628678803546574016536
0.4358251471521418229926326 -0.01666666666666666296592325 0.2716502943042837792120281
0.4429125735760708892918558 -0.02585789187690769666549961 0.2645628678803547129128049
0.4216502943042855222621768 -0.01168303902904605819090822 0.2858251471521418562993233
0.4145628678803582323197929 -0.03084151951452129142294822 0.2929125735760709225985465
0.4145628678803582323197929 0.007475441456429171571684833 0.2929125735760709225985465
0.4287377207282128122045606 -0.03582514715214189793268673 0.2645628678803547129128049
0.4145628678803564559629535 -0.03582514715214189793268673 0.2787377207282127900001001
0.4145628678803564559629535 0.03582514715214189793268673 0.2787377207282127900001001
0.4287377207282128122045606 0.03582514715214189793268673 0.2645628678803546574016536
0.491999229971853913045976 0.001995379831123554777161377 0.2599961498592696651499523
0.483998459943707826091952 -0.0166666666666666664353702 0.2679969198874157521039763
0.491999229971853913045976 -0.03133795350220978936928162 0.2599961498592696651499523
0.4744192197009702849364032 -0.002491813818808536005328103 0.2769110335197788042016498
0.472840749486378719712576 0.0006651266103745268965310999 0.2778243771239958803676018
0.4759976899155617946490793 -0.0339984599437078496841913 0.2599961498592696096388011
0.4657533230624496534133527 -0.01982360709584972402463876 0.2707369507000667585572273
0.4593310232488950761720048 -0.0339984599437078496841913 0.2618228370677036509484026
0.466418449672824142471228 0.01982360709584973790242657 0.2689102634916327172476258
0.4577525530343035109481775 0.03582514715214188405489892 0.2627361806719206716032033
0.4759976899155617946490793 0.03399845994370785662308521 0.2599961498592696096388011
0.4570874264239290774014535 0.007475441456425622327452984 0.2645628678803546574016536
0.4641748528478580881895255 -0.01168303902904958488373488 0.2716502943042837792120281
0.4570874264239290774014535 -0.03084151951452479903381665 0.2645628678803547129128049
0.541864550522712651314805 0.001187303136275374461361398 0.2593227526135628013825851
0.5337291010454252582206891 -0.0166666666666666594964763 0.2674582020908502499878523
0.541864550522712651314805 -0.03214603019705795927674075 0.2593227526135628013825851
0.5250632044069046822087898 -0.0006651266103745061882696055 0.2757283310172791157555139
0.5245327572456714992910065 0.0003957677120917965467306043 0.2758630104664204774067571
0.5255936515681376430819682 -0.03372910104542511944281102 0.2593227526135628013825851
0.5165319872175253568258313 -0.01772756098913296635144476 0.2678622404382743349415819
0.5089269849014710356271962 -0.03372910104542513332059883 0.2595921115118455246850715
0.5169277549296171780923714 0.01772756098913297329033867 0.2675928815399916116390955
0.5083965377402379637317154 0.03399845994370785662308521 0.2597267909609868863363147
0.5255936515681377541042707 0.03372910104542512638170493 0.2593227526135628013825851
0.5080007700281461424651752 0.001995379831123547838267474 0.2599961498592696651499523
0.5160015400562922849303504 -0.01533641344591763107374494 0.2679969198874157521039763
0.5080007700281461424651752 -0.03266820672295882299618341 0.2599961498592696651499523
0.5918421635907697986311859 0.001052981544619732267448198 0.2592108179538497592098167
0.5836843271815397304891349 -0.0166666666666666664353702 0.2673686543630798273518678
0.5918421635907697986311859 -0.03228035178871360710850524 0.2592108179538497592098167
0.5751531099921606271507812 -0.0003957677120917881983738762 0.2755488777042525150307029
0.5747797292120113699098738 0.0003509938482065783982646878 0.2755712646361950790563355
0.5755264907723098843916887 -0.03368432718153990812481879 0.2592108179538497592098167
0.5666442797347239768157579 -0.01741342822696502826151921 0.2674358151589076304510684
0.5588598241056432769369167 -0.03368432718153990812481879 0.2592555918177349427722334
0.5669952735829305590087301 0.01741342822696503866986006 0.2673910412950224468886518
0.5584864433254940196960092 0.03372910104542512638170493 0.2592779787496775623090173
0.5755264907723098843916887 0.0336843271815399150637127 0.259210817953849814720968
0.5581354494772874375030369 0.00118730313627537359399966 0.2593227526135628013825851
0.5662708989545748305971529 -0.01587513124248308288288811 0.2674582020908502499878523
0.5581354494772874375030369 -0.03293756562124153935977589 0.2593227526135627458714339
0.6418635110077257621696845 0.001181066046355387557514893 0.2593175550386294658800068
0.6337270220154516131572109 -0.01666666666666666990481716 0.2674540440309035593813292
0.6418635110077257621696845 -0.03215226728697794661426812 0.2593175550386294658800068
0.62521819175801507384449 -0.000350993848206583277174464 0.2755691856062217892642252
0.6248458504928524614996377 0.0003936886821184543334452288 0.2755478381892658146234965
0.6255905330231775751670398 -0.03372702201545179495623117 0.2593175550386294658800068
0.6166880140836223933575866 -0.01741134919699171418328021 0.2673900017800357464814454
0.6089238663565109677122678 -0.03372702201545180189512507 0.2592748602047175721097005
0.6170817027657409248320164 0.01741134919699170377493935 0.2674326966139476402517516
0.6085515250913484663897179 0.03368432718153990812481879 0.259253512787761652980123
0.6255905330231775751670398 0.03372702201545180189512507 0.2593175550386294658800068
0.6081578364092299349152881 0.001052981544619730315884287 0.2592108179538497592098167
0.6163156728184598920350368 -0.01596467897025351939666038 0.2673686543630798273518678
0.6081578364092299349152881 -0.03298233948512675761666202 0.2592108179538497592098167
0.6919900717839333470493557 0.001940430703600377546069744 0.2599503589196670017003044
0.6839801435678667385076324 -0.01666666666666666296592325 0.2679602871357336102420277
0.6919900717839333470493557 -0.03139290262973294665105328 0.2599503589196670017003044
0.6754499658934742800653339 -0.0003936886821184645791557588 0.2758436545755926783130008
0.6749297164351483191424563 0.0006468102345334560739770202 0.2757170937993851933534017
0.675970215351800129965909 -0.03398014356786678569211091 0.2599503589196670017003044
0.6667932274428741701299828 -0.01770716558331858481167842 0.2675806048071110998520794
0.6593035486851334114888346 -0.03398014356786678569211091 0.2596972373672519762699551
0.6674400376774076715236106 0.01770716558331858481167842 0.2678337263595260697712774
0.6587832992268075615882594 0.03372702201545179495623117 0.2595706765910444913103561
0.675970215351800129965909 0.03398014356786678569211091 0.2599503589196670017003044
0.6581364889922740601946316 0.001181066046355388424876631 0.2593175550386294658800068
0.6662729779845482092071052 -0.01587928930242974226438868 0.2674540440309035593813292
0.6581364889922740601946316 -0.03293964465121486384635574 0.2593175550386294658800068
0.7428282482942856201901805 0.006969489765713763815280224 0.2641412414714281453598232
0.7356564965885713514026634 -0.01666666666666666296592325 0.2713129931771425251696428
0.7428282482942856201901805 -0.02636384356761956732073671 0.2641412414714281453598232
0.7269997581379712414673122 -0.0006468102345334547729344132 0.2776465683725045652252561
0.7255147713930855113417806 0.002323163255237921994561523 0.2768083918621523364933523
0.7284847448828568605705414 -0.03565649658857125009481237 0.2641412414714281453598232
0.7175048431770189028000573 -0.01963664015643803648081267 0.2687984636460858389739315
0.7118180782161902531157693 -0.03565649658857124315591847 0.2624648884507236878960157
0.7198280064322568616574927 0.01963664015643804688915353 0.270474816666790296437739
0.7103330914713046340125402 0.03398014356786678569211091 0.2616267119403714591641119
0.7284847448828568605705414 0.03565649658857125703370627 0.2641412414714281453598232
0.7080099282160665641328023 0.00194043070360037928079322 0.2599503589196670017003044
0.7160198564321331726745257 -0.01537304619759974344539444 0.2679602871357336102420277
0.7080099282160665641328023 -0.0326865230987998661715821 0.2599503589196670017003044
0.7858587585285718990490977 -0.006969489765713751672215892 0.2928282482942856645991014
0.7786870068228575192392782 0.01202034015619083545667323 0.2856564965885712847892819
0.7858587585285718990490977 0.03101017007809541564666844 0.2928282482942856645991014
0.7715152551171430284071562 -0.03565649658857125009481237 0.2784847448828569049794623
0.7715152551171431394294586 0.03565649658857125703370627 0.2784847448828569049794623
0.7571717517057143798098195 0.0069694897657137655500037 0.2641412414714281453598232
0.7643435034114287596196391 -0.01202034015619082157888542 0.2713129931771425251696428
0.7571717517057143798098195 -0.03101017007809540870777454 0.2641412414714281453598232
0.3923403174120059788698711 0.004041904472029498630869515 0.3117015870600234883625035
0.3846806348240119355352817 -0.01666666666666666296592325 0.319361269648020695832713
0.3923403174120059788698711 -0.02929142886130383510723263 0.3117015870600234883625035
0.3693612696480229606876833 -0.01397206368531129540289104 0.3346806348240117801040583
0.3617015870600280291746742 -0.03198603184265653293083531 0.3423403174120058789497989
0.3617015870600280291746742 0.004041904472033938655606278 0.3423403174120059344609501
0.3770209522360161713550042 -0.034680634824011902228591 0.3117015870600249316524355
0.3617015870600271409962545 -0.03468063482401188835080319 0.3270209522360160159237807
0.3617015870600271409962545 0.0346806348240119091674849 0.327020952236016071434932
0.3770209522360161713550042 0.0346806348240119091674849 0.3117015870600248761412843
0.4276809759991041515192478 0.0003783243605915434732214764 0.3226973483614871684999059
0.42662423126999571287854 -0.002491813818808529500115068 0.3241324174511871492043724
0.4247046736152542134590249 -0.001347301490674433343402994 0.3260519751059286486238875
0.4238418606896212637025201 0.0003783243605915397327239813 0.3265364636709700563166336
0.4184800601169585410055163 -0.01953680484606674580549956 0.3159882462981499773313487
0.4124493784221398007261428 -0.03582514715214185629932331 0.307465750784520930327659
0.4161821781016251664553351 -0.01839229251793264921510662 0.3188767810829750692924733
0.4089008198742209998499675 -0.03371165769392489575118077 0.3102481213648963787044011
0.4165605024622170415860012 0.01839229251793263533731881 0.3179078039528914212397126
0.4080380069485879390711602 0.03468063482400775277003646 0.3107326099299377863971472
0.4205935495751769725991664 0.01953680484606673539715871 0.3156099219375581022006827
0.4113926336930312510631325 0.03371165769392488881228687 0.3089008198742209110321255
0.4216502943042854667510255 -0.01666666666666667337426411 0.314174852847858065985065
0.4145628678803581768086417 -0.02585789187690421334075985 0.3070874264239289996858417
0.4145628678803581768086417 0.007475441456429127336236196 0.307087426423929055196993
0.4076596825879961194516454 0.004041904472025343100782813 0.3117015870600213789387567
0.4153193651759921611876791 -0.01397206368531575017277735 0.3193612696480164769852195
0.4076596825879961194516454 -0.03198603184265683130327318 0.3117015870600214344499079
0.7923295551039715167718214 0.00397733062382881787100164 0.3116477755198573396100414
0.7846591102079428781124193 -0.0166666666666666594964763 0.3193182204158858672471411
0.7923295551039715167718214 -0.02935600270950450979556834 0.3116477755198573396100414
0.7761395302484694891376193 -0.000372493252280031716949793 0.3265120235007497040413682
0.7752903951850247388222215 0.001325776874609611594851843 0.3260353816895849021761933
0.780511476887781219247131 -0.02031560679651418441227229 0.3161679734763525595475642
0.790006391848733557914386 -0.03465911020794293362357053 0.3103219986452477874294686
0.7743150601835457891297665 -0.004021433382127555765384042 0.3246875534358258930112129
0.7743150601835457891297665 0.004021433382127569643171849 0.3246875534358258930112129
0.780511476887781219247131 0.02031560679651419482061314 0.3161679734763525040364129
0.790006391848733557914386 0.03465911020794293362357053 0.3103219986452477319183174
0.7858587585285718990490977 -0.006969489765713751672215892 0.3071717517057144242187405
0.7786870068228575192392782 0.0120203401561908371913967 0.3143435034114288040285601
0.7858587585285717880267953 0.03101017007809541564666844 0.3071717517057144242187405
0.7724905901186219780996112 0.0003724932522800458657881439 0.3228630833709021374922088
0.7734659251201009277920662 -0.002323163255237912453582405 0.324210911624661091146038
0.8383522244801426825944191 -0.003977330623828810932107736 0.3423295551039713946472887
0.8306817795841141549573194 0.01401511291744746146026301 0.334659110207942867010189
0.8383522244801426825944191 0.03200755645872373211791029 0.3423295551039713946472887
0.8230113346880856273202198 -0.03465911020794293362357053 0.3269886653119143948842407
0.8230113346880856273202198 0.03465911020794294056246443 0.3269886653119143393730894
0.8076704448960285720460206 0.00397733062382881787100164 0.3116477755198573396100414
0.8153408897920570996831202 -0.01401511291744745105192216 0.3193182204158858672471411
0.8076704448960285720460206 -0.03200755645872371824012248 0.3116477755198573396100414
0.3428717912244904075791396 0.007230747346944840087124007 0.3643589561224543915685103
0.3357435824489807263404373 -0.0166666666666666594964763 0.3714871648979626295172807
0.3428717912244904075791396 -0.02610258598638849625306335 0.3643589561224543915685103
0.321487164897958588305471 -0.0118461684353776235123501 0.3857435824489806042159046
0.3143589561224460759980559 -0.0309230842176916390084962 0.3928717912244903409657582
0.3143589561224460759980559 0.007230747346936385912263834 0.3928717912244903409657582
0.3286153736734703234567689 -0.03574358244898066805372849 0.3643589561224523376559148
0.3143589561224481299106515 -0.03574358244898066805372849 0.3786153736734703123545387
0.3143589561224482409329539 0.0357435824489806819315163 0.3786153736734702013322362
0.3286153736734703234567689 0.0357435824489806819315163 0.3643589561224523376559148
0.3765355021466745277791688 0.0003764013119978891703035218 0.3738408991653235369234665
0.3760500520573357707831974 -0.001347301490675458348136861 0.3747027505666601365774682
0.374171276754175496925825 -0.002410249115645032771254597 0.3765815258698204104348406
0.3727779515403540355755752 0.0003764013119978915013381926 0.3775984497716440291270601
0.3679049193800019712519145 -0.01839036946934002186848645 0.3665576178893264480684877
0.3607306868813474065582625 -0.03468063482400877972633424 0.3580360838999941397453597
0.3656497427648431330915457 -0.01945331709430959260531679 0.3704702409961369014013144
0.3588979353013309059328151 -0.03370973464533123797881586 0.3613081844169795386889632
0.3660261440768417529056933 0.01945331709430958566642289 0.3684363931924866664147089
0.3575046100875094445825653 0.03574358244897835740205849 0.3623251083188031573811827
0.3688758195586810950672429 0.01839036946934000799069864 0.3661812165773279392766426
0.3602452367920086495622911 0.03370973464533123797881586 0.3588979353013308504216639
0.3693612696480198520632143 -0.01666666666666666990481716 0.3653193651759912286003384
0.3617015870600264748624397 -0.02929142886130252365628479 0.3576596825879955199312121
0.361701587060026530373591 0.004041904472030810949179092 0.3576596825879956309535146
0.3571282087755108802795689 0.007230747346942513822942722 0.3643589561224532813454857
0.3642564175510217272524471 -0.011846168435369182347916 0.3714871648979604090712314
0.3571282087755108802795689 -0.03092308421768086984515733 0.3643589561224532813454857
0.842825917747352271192085 0.006955506484113069265440288 0.3641295887367608230533733
0.8356518354947044535663281 -0.0166666666666666594964763 0.3713036709894086961902815
0.842825917747352271192085 -0.02637782684922026360530012 0.3641295887367608230533733
0.8271323231721516844316966 -0.0003723579784390458483414599 0.3775046811505905486328061
0.825786893102246732922822 0.002318502161371026413366758 0.3765316090591245279384225
0.8325039191021046391938398 -0.02031094570264728796371578 0.3671630293100474062839567
0.8415001408727427190115122 -0.03565183549470434670736196 0.3618110865753898508501152
0.8253101836541613112174787 -0.004016637014419672038756381 0.3756825416326002309297394
0.8253101836541614222397811 0.004016637014419683314458975 0.3756825416326002309297394
0.8325039191021046391938398 0.02031094570264729837205664 0.3671630293100474062839567
0.8415001408727427190115122 0.03565183549470436058514977 0.3618110865753898508501152
0.8383522244801426825944191 -0.00397733062382880919738426 0.3576704448960284499214879
0.8306817795841143770019244 0.01401511291744746319498649 0.3653408897920570330697387
0.8383522244801426825944191 0.03200755645872373211791029 0.3576704448960284499214879
0.8234880441361710490255632 0.0003723579784390574493047055 0.3738604021146099687378239
0.8239647535842562486863017 -0.001325776874609599451787512 0.374709469541134265746507
0.8858704112632391769466267 -0.006955506484113062326546384 0.3928259177473522045787035
0.8786963290105913593208697 0.01202966234392462488433928 0.3856518354947043869529466
0.8858704112632391769466267 0.0310148311719623155646719 0.3928259177473522045787035
0.8715222467579435416951128 -0.03565183549470435364625587 0.3784777532420565138160384
0.8715222467579435416951128 0.03565183549470436058514977 0.3784777532420565138160384
0.8571740822526479064435989 0.006955506484113066663355074 0.3641295887367608230533733
0.8643481645052957240693559 -0.0120296623439246231496158 0.3713036709894086961902815
0.8571740822526479064435989 -0.03101483117196231209522495 0.3641295887367608230533733
0.3277393182510682789754242 0.0006581382708486273325210192 0.4229188200197803171320743
0.3268632628286706198750267 -0.002410249115643893925292618 0.4244530137130265723399702
0.3179829432083638440786899 -0.01535039012496964595799742 0.433991471604181833221503
0.3099786790104546718715994 -0.03267519506248493105227126 0.4419957358020908388951398
0.3099786790104546718715994 0.001974414812545644774127718 0.4419957358020908388951398
0.3188589986307617807348436 -0.01973505405315918032060907 0.4164487495151177887109384
0.3126068452776486483735141 -0.03574358244897721942345825 0.4077863470463601869298031
0.3099786790104550049385068 -0.03399147160418194979492057 0.4259872074062730495924711
0.309978679010455060449658 0.03399147160418196367270838 0.4259872074062730495924711
0.3206111094755574875136972 0.01973505405315919072894992 0.415790611244268970558835
0.3117307898552510447842678 0.03399147160418195673381447 0.4093205407396064421376991
0.3214871648979551466140947 -0.0166666666666666594964763 0.4142564175510227153509391
0.3143589561224443551523677 -0.0261025859864003929866616 0.4071282087755113687776998
0.3143589561224443551523677 0.00723074734693293814935533 0.4071282087755113687776998
0.8900477480479560554726959 -0.001942702342452547583165345 0.4419904503904087400556477
0.8820381984383649509595671 0.0153715317716982963203165 0.433980900780817413497914
0.8900477480479560554726959 0.03268576588584914954793703 0.4419904503904086845444965
0.8858704112632391769466267 -0.03565183549470436058514977 0.4215222467579434750817313
0.8795317963675346462082416 -0.0196327362755218809420299 0.4301793638150188670010721
0.8883768133340691486310448 -0.03398090078081751619354378 0.4396719482290377678523896
0.8795317963675346462082416 0.01963273627552186012534818 0.4301793638150188670010721
0.8883768133340691486310448 0.03398090078081750925464988 0.4396719482290377123412384
0.8858704112632389549020218 0.03565183549470435364625587 0.4215222467579434750817313
0.8858704112632391769466267 -0.006955506484113069265440288 0.4071740822526477843190662
0.8786963290105911372762648 0.01202966234392461447599842 0.4143481645052955464336719
0.8858704112632391769466267 0.03101483117196231209522495 0.4071740822526477843190662
0.8723577141148866065378797 0.0006475674474841625061216632 0.4230052815623709383530127
0.8731931814718301154698565 -0.002318502161371038990111959 0.4244883163667985681577477
0.3258557733711240356200278 0.0003952702005511419657696193 0.4745394968294269766317939
0.3257243393359753880211827 -0.0006581382708484574380405907 0.4750662010651267586069935
0.3174572070677689761275531 -0.01587612626556436645763881 0.4837286035338843603881287
0.3093215088347112118327686 -0.03293806313278217767770428 0.4918643017669421801940643
0.3093215088347112118327686 0.001185810601653446930831004 0.4918643017669421801940643
0.3175886411029176237263982 -0.01772007513806626854968584 0.4669305028320690498233603
0.3097158109401572101404554 -0.03399147160418178326146688 0.4583995343984601511522214
0.3093215088347112118327686 -0.03372860353388447418598872 0.4755929053008266516044955
0.3093215088347112118327686 0.03372860353388448112488263 0.4755929053008266516044955
0.3178515091732149189240886 0.01772007513806626854968584 0.4665352326315178599358546
0.3095843769050086180527614 0.03372860353388448112488263 0.4589262386341599886385723
0.317982943208363622034085 -0.01666666666666666296592325 0.466008528395818077960655
0.3099786790104545053381457 -0.03135891852078785679847073 0.458004264197909016775867
0.3099786790104545053381457 0.001974414812545475204907941 0.458004264197909016775867
0.8906838878086904554010061 -0.001179402877272248519394116 0.491863290685962795123487
0.8825470078754010794241935 0.01588051182798662017137126 0.483726581371925590246974
0.8906838878086904554010061 0.03294042653324548430848751 0.491863290685962795123487
0.8900480246202793210841264 -0.03398090078081751619354378 0.4740289254010968122976521
0.8821656347151339838674744 -0.01770748215274304052102572 0.4825588827537262148759112
0.8904296743528693491853687 -0.03372658137192553057248645 0.4912159998108015512841007
0.8821656347151339838674744 0.01770748215274305092936658 0.4825588827537262148759112
0.8904296743528693491853687 0.03372658137192553751138036 0.4912159998108015512841007
0.8900480246202790990395215 0.03398090078081751619354378 0.4740289254010967567865009
0.8900477480479560554726959 -0.001942702342452538259026662 0.4580095496095912821488128
0.8820381984383649509595671 0.01537153177169831366755126 0.466019099219182497684244
0.8900477480479560554726959 0.03268576588584915648683094 0.4580095496095912821488128
0.8741558085332197247652175 0.0003932480385922059958926644 0.4745490565718119002625031
0.8742829682376657141062992 -0.0006475674474841718302603466 0.475069464314850142816482
0.3255704541788014272363228 0.0003503679565006879818855889 0.5247799137776991695858442
0.3255480030567762250726105 -0.0003952702005511369784396258 0.5251527328562251017984863
0.3173674025796680564504015 -0.01596593075366528266534338 0.5336837012898340004696252
0.3092092532245850344807536 -0.03298296537683263751628004 0.5418418506449169669281218
0.3092092532245850344807536 0.001051103869502072185593278 0.5418418506449169669281218
0.3173898537016932586141138 -0.01741230482371848575784412 0.5169945835011420243176872
0.3092766065906606964830416 -0.03372860353388447418598872 0.5084860661895583833214118
0.3092092532245850344807536 -0.03368370128983401434741296 0.5255255519347510340111285
0.3092092532245850344807536 0.03368370128983402822520077 0.5255255519347510340111285
0.3174347559457436629415383 0.01741230482371849269673802 0.5166442155446413497799085
0.3092541554686354943193294 0.03368370128983402822520077 0.508858885268084315534054
0.3174572070677689206164018 -0.01666666666666666296592325 0.5162713964661156396118713
0.3093215088347112118327686 -0.03214752273167989504720765 0.5081356982330578198059357
0.3093215088347112118327686 0.001185810601653441726660576 0.5081356982330578198059357
0.8907984400220803067327324 -0.001042979903389154583415177 0.5418414199254693031093666
0.8826370901228361987023163 0.01597319328088290385503356 0.5336828398509386728321147
0.8907984400220803067327324 0.0329893664651549622934823 0.5418414199254693031093666
0.8906878438580033696680971 -0.03372589887344981662842258 0.5244142546106766999969295
0.8825728346852074190920234 -0.01740873872438853525723701 0.5329223412028126771744496
0.8907557140957070851428057 -0.03368283985093872834326589 0.5414519573062042123723359
0.8825728346852074190920234 0.01740873872438853525723701 0.5329223412028126771744496
0.8907557140957070851428057 0.03368283985093872834326589 0.5414519573062042123723359
0.8906878438580033696680971 0.03372589887344981662842258 0.5244142546106766999969295
0.8906842290579284338036814 -0.001178720378796530021681122 0.5081370505632750722568858
0.8825476903738769252072416 0.01588051182798661670192431 0.5162741011265501445137716
0.8906842290579284338036814 0.03293974403476976342552973 0.5081370505632750722568858
0.874432681201080752586563 0.0003495065176053903767752762 0.5247821877186861216912916
0.8744542107123363106069291 -0.0003925655401164768187882714 0.525153223747547026611926
0.3255472605991310275364015 0.0003937852852605987913348073 0.5748465246861296229496929
0.3255689692635109766527535 -0.0003503679565006750256696277 0.5752186013070101910926724
0.3174542372371878529158096 -0.0158790960961454827304884 0.5837271186185938320889477
0.3093177965464848355736649 -0.03293954804807273928357603 0.5918635593092969049422436
0.3093177965464847800625137 0.001181355855781769052109675 0.5918635593092969049422436
0.3174325285728079593106088 -0.01741081990842793109086628 0.5670821606163071182393765
0.3092526705533449882246089 -0.03368370128983401434741296 0.5585519346403435836379003
0.3093177965464848355736649 -0.03372711861859391258011698 0.5755906779278908702579542
0.3093177965464848355736649 0.03372711861859392645790479 0.5755906779278908702579542
0.3173891112440480055667535 0.01741081990842795190754799 0.5666883753310466564911962
0.3092743792177249373409609 0.03372711861859392645790479 0.5589240112612241517808798
0.3173674025796680564504015 -0.01666666666666665602702935 0.5663162987101659773259144
0.3092092532245850899919049 -0.03228222946383125374625322 0.5581581493550830108674177
0.3092092532245850899919049 0.001051103869502077389763706 0.5581581493550830108674177
0.8906968036339883987295707 -0.001159488831979166301167083 0.5918562924659674928662412
0.8825639631180428601453514 0.01588642943328922099710532 0.5837125849319348969146404
0.8906968036339883987295707 0.03293234769855760135648381 0.5918562924659674928662412
0.8908044402707049336243017 -0.03367053461755829119050887 0.5744845102969300398854102
0.8826282178309625692236295 -0.01738311954949333520970001 0.5830074694295641624108839
0.8907400331897196155139795 -0.0337125849319350467947487 0.5915094034050101257093957
0.8826282178309625692236295 0.01738311954949334908748781 0.5830074694295641624108839
0.8907400331897196155139795 0.0337125849319350537336426 0.5915094034050101257093957
0.8908044402707049336243017 0.03367053461755829812940277 0.5744845102969300398854102
0.8908045926387704316340432 -0.001030674670008719599062497 0.5581647326912207995874837
0.8826493953562164485049379 0.01597319328088291079392746 0.5663294653824416657883489
0.8908045926387704316340432 0.03297706123177453207961918 0.5581647326912207995874837
0.8744731729164740841042658 0.0003792515986017247660300189 0.5748524245150758993361251
0.8744521477592857028326989 -0.0003372012842249470982759763 0.5752106509564891556607336
0.3257195764810226212837563 0.0006515823915239830985829395 0.6249320059105013536182582
0.3258484750341542612872558 -0.0003937852852605849135469995 0.6254546897488936219033917
0.3179698314497146349744128 -0.01536350188361870067188519 0.6339849157248572675271703
0.3099622893121432576357677 -0.03268175094180934825427443 0.6419924578624286448658154
0.3099622893121433131469189 0.001954747174571951247312729 0.6419924578624285338435129
0.3178409328965828839486107 -0.01771203434345123423065971 0.6174471476113223555870491
0.3095755936527482266029665 -0.03372711861859391258011698 0.6087880230822270144486197
0.3099622893121433131469189 -0.03398491572485731054831248 0.6259773735872858901885252
0.3099622893121432576357677 0.03398491572485731748720639 0.6259773735872858901885252
0.3175831357903196039416116 0.01771203434345123770010666 0.6167955652197982807649623
0.3097044922058798666064661 0.03398491572485731748720639 0.6093107069206192827337532
0.3174542372371878529158096 -0.01666666666666666296592325 0.6162728813814060124798289
0.3093177965464848355736649 -0.03215197747755156598703508 0.6081364406907030506488354
0.3093177965464848355736649 0.001181355855781764064779682 0.6081364406907030506488354
0.8900560630240001991353438 -0.001932724371199713575553147 0.6419887873951999335275787
0.8820448504191999994361595 0.01537818375253351306508609 0.6339775747903997338283943
0.8900560630240001991353438 0.03268909187626675705296009 0.6419887873951998225052762
0.8906859414485004400319212 -0.03372707106765158308059327 0.6244093933985226385630085
0.882420606003322394172983 -0.01770464585805149246300338 0.6330648474603891573408987
0.8903065667467484622932261 -0.03397757479039990174962682 0.6415950496608817665844526
0.882420606003322394172983 0.01770464585805146817687472 0.6330648474603891573408987
0.8903065667467484622932261 0.03397757479039989481073292 0.6415950496608815445398477
0.8906859414485004400319212 0.03372707106765157614169937 0.6244093933985226385630085
0.8906895605661300230337929 -0.001173974967695707140660777 0.6081364644661741980513625
0.8825494769823261087537958 0.01588642943328920364987056 0.6162729289323484183071855
0.8906895605661300230337929 0.03294683383427412376454058 0.6081364644661741980513625
0.8742841415371480628948575 0.0006442414570665500137686132 0.6249283829942149370850757
0.8741588896757739313159163 -0.0003937377343182652802630606 0.6254473725899073466294453
0.3268307154855576990293287 0.002358266188067491622715188 0.6755275507025096937141484
0.3276840573838294412567507 -0.0006515823915239759428486011 0.6770324749923053442302034
0.3213831990427811202692965 -0.01195013429057267123623021 0.6856915995214007963909353