# geometry NO_DATA 396
#  x  y  z
0.4839884053531484653376538 0.01533700943247910848665772 0.3820134326964244597668596
0.4919942026765742326688269 0.03265874811896088414364669 0.3900094734225715287223579
0.4919942026765742326688269 -0.001984729254002676277629513 0.3900094734225714732112067
0.4883951428041600206775286 -0.003918432512498864865591042 0.3923135753166590022900095
0.4807272084270914902504046 0.01404205145415253139229428 0.3846271506333179823755586
0.4883951428041601872109823 0.03200253542080390423141267 0.3923135753166590022900095
0.4832184585669376808425568 -0.01761371335860226899905356 0.3825633865471225192322891
0.4916977792363312893542115 -0.0339884053531484264798479 0.390377878599422301064692
0.4822440139070377496111064 -0.01825245863877187485480036 0.3835378312070223949525882
0.4894110269701741899872616 -0.0346271506333180392744886 0.392017151876416003464243
0.4822440139070377496111064 0.01825245863877192342705769 0.3835378312070224504637395
0.4894110269701742454984128 0.03462715063331806703006421 0.3920171518764160589753942
0.4832184585669376808425568 0.01761371335860231063241699 0.3825633865471225747434403
0.4916977792363312893542115 0.03398840535314846117431742 0.3903778785994224120869944
0.475509084683754856825999 -0.0002919746721204819037316647 0.3741989406441246224233055
0.4750355613377870156455174 0.0006550720198151413140030819 0.3743804893179718540352496
0.474061116677887084414067 0.001293817299984751940239436 0.3753549339778717852667
0.4735601953639550498742494 -0.0002919746721204810363699267 0.3761478299639243738639038
0.5354463129660391729203184 0.01244070740125491521255174 0.3791073740679214987281398
0.5427231564830196086646197 0.03122035370062746506558682 0.3863842175849019899835923
0.5427231564830196086646197 -0.006338938898117646783547663 0.3863842175849019899835923
0.5333877058880287513886742 -0.01944772447381084082285163 0.3812747262553228821957418
0.5420550783085813506545492 -0.0354463129660392076147879 0.3878291190431695234508425
0.523997882738342468655901 -0.03400141150777162557528044 0.3899997207879153382492632
0.523997882738342468655901 0.03400141150777166026974996 0.3899997207879154492715656
0.5333877058880287513886742 0.01944772447381089286455591 0.3812747262553229377068931
0.5420550783085811286099442 0.03544631296603923537036351 0.3878291190431695234508425
0.5267789405454866846767459 -0.0006680781744382805614757004 0.3725529812800749684953416
0.5253884116419145211551722 0.002112979632705921581581343 0.3732754320092087074733911
0.515998588492228238422399 0.01533700943247911542555162 0.3820004265418012190380637
0.5079992942461141192111995 0.03267175427358408323907923 0.3900029703452599361135356
0.5079992942461141192111995 -0.001997735408625874939381184 0.3900029703452599361135356
0.5899581656353320990859856 0.003417002062669153433782654 0.3700836687293357352146472
0.5949790828176660939519138 0.02670850103133457636994663 0.3751045859116698411028779
0.5949790828176660939519138 -0.01987449690599627644127523 0.3751045859116697855917266
0.5834762800352738532083663 -0.02540447860137129768021147 0.3768514477332751688720691
0.5928661031849601359411395 -0.03995816563533208243264028 0.3796164385809626118373217
0.5718305305509412406195224 -0.03544631296603920067589399 0.3863842175849019899835923
0.57183053055094112959722 0.03544631296603922843146961 0.3863842175849019344724411
0.5834762800352738532083663 0.02540447860137132196634013 0.3768514477332750578497667
0.5928661031849601359411395 0.03995816563533209631042808 0.3796164385809626673484729
0.5805683424856458163532125 -0.00211297963270587127460054 0.3673186778816482922493947
0.5761994365182935284863674 0.006624832301998778184837224 0.3695746042162946776166166
0.5645536870339608048752211 0.01244070740125490653893436 0.3791073740679214987281398
0.5572768435169803691309198 0.03122035370062745812669291 0.3863842175849019344724411
0.5572768435169803691309198 -0.006338938898117650252994615 0.3863842175849019899835923
0.6355076155361145673339252 0.01231810226110437514468465 0.3789847689277710540700639
0.6427538077680572392580416 0.03115905113055220457263239 0.386230961159713892527634
0.6427538077680572392580416 -0.006522846608343445609645705 0.3862309611597137815053316
0.6244832259817258979239796 -0.02546578117144658939818846 0.3723089437789446898285917
0.6361289754660585105128234 -0.03550761553611449239387099 0.3817804110604963163666525
0.615062751547001962393324 -0.03995816563533209631042808 0.3751045859116698411028779
0.615062751547001962393324 0.03995816563533209631042808 0.3751045859116698411028779
0.6244832259817258979239796 0.02546578117144658939818846 0.3723089437789447453397429
0.6361289754660585105128234 0.03550761553611449239387099 0.3817804110604963163666525
0.6238618660517818437227788 -0.006624832301998763439687679 0.3695133016462195385543055
0.6194623087993919030580514 0.002174282202781161691534928 0.3672880265966107504738147
0.6100418343646679675273958 0.00341700206266914649488875 0.3700836687293358462369497
0.6050209171823339726614677 0.02670850103133457290049968 0.3751045859116698411028779
0.6050209171823339726614677 -0.01987449690599628338016913 0.3751045859116697855917266
0.6840210621944585733800182 0.01529362508937069133063691 0.3819590836835599079179815
0.6920105310972293199966998 0.03264802061716270964453201 0.3899497606588080422795883
0.6920105310972293199966998 -0.00206077043842133435583297 0.3899497606588080422795883
0.6804192390714437488341559 -0.01952867773057317263285526 0.3797315102103184791815238
0.689839713506167795387114 -0.03402106219445867607564793 0.3884654638563943551687885
0.6717420413075478879960656 -0.03550761553611447851608318 0.3862344257714334094799824
0.6717420413075478879960656 0.03550761553611449239387099 0.3862344257714334094799824
0.6804192390714437488341559 0.01952867773057318998009002 0.3797315102103184791815238
0.689839713506167795387114 0.03402106219445868995343574 0.3884654638563945217022422
0.6746005877597346378493626 -0.002174282202781145645342775 0.3732251300374840319307168
0.6731695822277813379130862 0.0006877288611253689004990108 0.372481853366656068260454
0.6644923844638853660526934 0.01231810226110438555302551 0.3789847689277709985589127
0.6572461922319426941285769 0.03115905113055220804207934 0.3862309611597137815053316
0.6572461922319425831062745 -0.006522846608343441272837016 0.3862309611597137815053316
0.7259653223068989191801847 0.001331738255188193338629521 0.3753664159482893447616902
0.7264814648448405520753113 -0.0002994531793047077805960954 0.3761820116655357759682943
0.7193369245737424311215591 -0.01398962736289150778079549 0.384665071588521478851419
0.7116762417647026772726804 -0.03198803228474634413602828 0.3923325357942606950167885
0.7116762417647027882949828 0.004008777558963308625117339 0.3923325357942607505279398
0.7254741479797739422963332 -0.002314086909438011364220644 0.3751746948004691661893162
0.7169910880567883504355109 -0.01868130039679994497392457 0.3829712339348068650402013
0.7103377221128150953433078 -0.03466507158852147330030391 0.3916460150056127464957001
0.7169910880567883504355109 0.01868130039679998660728799 0.3829712339348068650402013
0.7103377221128150953433078 0.03466507158852150105587953 0.3916460150056128020068513
0.7254741479797740533186357 0.002314086909438072513223172 0.3751746948004691661893162
0.7249580054418323094012067 -0.0006828954749451103534152452 0.3743590990832227349827122
0.7244668311147073325173551 0.0002994531793047692548592753 0.3741673779354025008991869
0.7159837711917216296342303 0.01529362508937070000425429 0.3819639170697402552612232
0.7079918855958609036349571 0.0326431872309824941402745 0.3899521773518981881956336
0.7079918855958609036349571 -0.0020559370522411153821285 0.3899521773518981326844823
0.4346209445052057196434703 0.01404514612065054651734997 0.4307349618884527275852747
0.4423104722526027821061234 0.03199942395918964344048163 0.4384013405347142455781295
0.4423104722526028376172746 -0.003909131717888553875228652 0.4384013405347142455781295
0.4399949922630850274174463 -0.002001074297437704929691904 0.4419960665605227045915626
0.4320033962907583457990768 0.01532439215694119880040169 0.4339921331210455091031974
0.4399949922630850274174463 0.03264985861132009559160139 0.4419960665605227045915626
0.4335340635087407967773743 -0.01824593505224654174656784 0.4322464523368682032256061
0.4420132254489277934261793 -0.03462094450520575295016101 0.4394148540040472283862982
0.4325608580289484472736206 -0.01761712366808634508408282 0.433219657816660608240511
0.4403688827142727135743883 -0.03399213312104555628767599 0.4416988197568476604004672
0.4325608580289484472736206 0.01761712366808636937021149 0.4332196578166605527293598
0.4403688827142727135743883 0.0339921331210455771043577 0.4416988197568476604004672
0.4335340635087407967773743 0.01824593505224656603269651 0.4322464523368682032256061
0.442013225448927737915028 0.03462094450520576682794882 0.4394148540040472283862982
0.4261417825650187229946653 -0.000291657213707439022954554 0.4235665602212737024245826
0.4253521483722287888085134 0.001287611171872446100272747 0.4240645372003561952567452
0.4243789428924364948159109 0.0006587997877122486788462052 0.4250377426801486002716501
0.4241953716054340794983091 -0.0002916572137074408118881386 0.42551297118085840143209
0.4883766673185799822576314 -0.03465179449455298849036566 0.4230223082581703875071355
0.4730223082581704319160565 -0.03465179449455298849036566 0.4383782146518290234737947
0.4730223082581704319160565 0.03465179449455298849036566 0.4383782146518290234737947
0.4883766673185800932799339 0.03465179449455298849036566 0.4230223082581704430182867
0.4883828208735425668862717 -0.003943076373733808009935942 0.4076741027527234217942009
0.4807025645658565271567397 0.01404205145415251057561257 0.4153482055054469879173951
0.488382820873542622397423 0.03202717928203883263060803 0.4076741027527234217942009
0.4653482055054468657928624 0.01404514612065053610900911 0.4307041118991055128617518
0.4576741027527234106919707 0.03203027394853685816400457 0.4383859155400405827052168
0.4576741027527234106919707 -0.003939981707235782476539399 0.4383859155400405827052168
0.7346741121181559197594879 0.01398510909702114016206487 0.4306517757636877385962748
0.742337056059077959879744 0.03199255454851054197851212 0.4383147197046096676942284
0.742337056059077959879744 -0.004022336354468254715488484 0.4383147197046097787165309
0.727008909044299045376647 -0.03467411211815606131292355 0.4229888318227658094983212
0.727008909044299045376647 0.03467411211815606131292355 0.4229888318227659205206237
0.7193459651033770052563909 -0.0166666666666666664353702 0.4153258878818438804003677
0.7116807620295200198512475 -0.02931551524473545791704687 0.4076629439409218957912628
0.7116807620295200198512475 0.004017818088597868882161368 0.4076629439409219513024141
0.7756451759829593450845664 0.0006869267406289223699966673 0.4250417507576698117333081
0.7758377830469515012978832 -0.0003017126126447760431359413 0.4255360704343066347021818
0.768040520147924565819153 -0.01529281318540881041967427 0.4340202600739622718073463
0.760050650184905696171711 -0.03264640659270440226080723 0.442010130036981085943637
0.760050650184905696171711 0.002060780221886793998203879 0.442010130036981085943637
0.7748239302842254705439018 -0.002329418138096441166784434 0.4245222176715808259928053
0.7663397406445697779275861 -0.01869437219211833589582739 0.4316656285264136583279537
0.7593637234442767169895205 -0.03402026007396225654177968 0.4406693512521583366847722
0.7663397406445697779275861 0.01869437219211832895693348 0.4316656285264137693502562
0.7593637234442767169895205 0.03402026007396226348067358 0.4406693512521583366847722
0.7748239302842254705439018 0.002329418138096425120592281 0.4245222176715808259928053
0.7746313232202335363751899 -0.001340778784822742753651825 0.4240278979949439475127804
0.7738100775214997728568278 0.0003017126126447601053640057 0.4235083649088549617722776
0.7653258878818439692182096 0.01398510909702114016206487 0.4306517757636879051297285
0.7576629439409219290979536 0.03199255454851054891740603 0.4383147197046097787165309
0.7576629439409219290979536 -0.004022336354468252980765008 0.4383147197046097787165309
0.4363484798001224795882536 -0.006381824239852968566610869 0.4927303040399754197053994
0.429078783840097899293653 0.01241211717343134769697688 0.4854606080799509504331013
0.4363484798001224795882536 0.03120605858671567436890548 0.4927303040399754197053994
0.4399826611334018977572669 -0.03400857885226797605593418 0.4739871317215980095483019
0.431256827681622434411679 -0.01946918693221896812239891 0.4833841024282401477307758
0.4378005090278054844965538 -0.03546060807995098790312838 0.4920550585210408112146752
0.4312568276816223233893766 0.019469186932218961183505 0.4833841024282401477307758
0.4378005090278054289854026 0.03546060807995098790312838 0.4920550585210408112146752
0.4399826611334018977572669 0.03400857885226797605593418 0.4739871317215980095483019
0.4399867693974737758999538 -0.00201752002866011862641793 0.4579957105738659550731029
0.4319869505595357872529405 0.01532439215694118318789041 0.4659914211477319545551268
0.4399867693974737758999538 0.03266630434254250148207177 0.4579957105738659550731029
0.4232611171077563239073527 0.00212727474661764722613233 0.4753883918543740927376007
0.4225351024939148492087782 -0.0006752455189346509914494199 0.4767896519871502869492019
0.776780773680144531745384 0.002187693879030942756269695 0.475406920198886528972082
0.7775311572493455170018706 -0.0006869267406289306099331782 0.4768442305087164378996079
0.7710420544247287288897041 -0.01229127890860477745338386 0.4855210272123642312180891
0.7638025680309108444987487 -0.03114563945430238317557681 0.4927605136061821156090446
0.7638025680309106224541438 0.006563081637092832605617776 0.4927605136061821156090446
0.7702916708555276326109151 -0.01954128728632653633212612 0.4696047441148985535086524
0.7615514173233077777069866 -0.03402026007396225654177968 0.4601775638420497749336846
0.7638025680309106224541438 -0.0355210272123642686881162 0.4782815408185463468271337
0.7638025680309108444987487 0.03552102721236428256590401 0.4782815408185464023382849
0.768790903717125662097942 0.01954128728632654327102003 0.46741705023586765932464
0.7623018008925087629634731 0.03552102721236428256590401 0.4616148741518797393723617
0.768040520147924565819153 -0.01666666666666666296592325 0.4659797399260377503971142
0.760050650184905696171711 -0.03127255311144653410204697 0.457989869963018825238521
0.760050650184905696171711 0.002060780221886796166608224 0.457989869963018825238521
0.4245266751203043975593232 -0.02056798985563481479976744 0.5450946649759389472933435
0.4196213400962434669771994 0.00295467342957678961307133 0.5401893299518781832446734
0.424526675120304342048172 0.02647733671478839229118663 0.5450946649759389472933435
0.4363484798001225350994048 -0.03546060807995098096423447 0.5218090878800734078168944
0.4267144229041344161146299 -0.02564993803182925857786501 0.5335704195226791402006938
0.4292553969922315859619744 -0.04018932995187826651140028 0.5429673902293213894054702
0.4267144229041344161146299 0.02564993803182925857786501 0.5335704195226791402006938
0.4292553969922315859619744 0.04018932995187827345029419 0.5429673902293212783831677
0.4363484798001225350994048 0.03546060807995098790312838 0.5218090878800734078168944
0.4363484798001225350994048 -0.006381824239852965964525655 0.5072696959600243582499957
0.4290787838400980658271067 0.01241211717343135290114731 0.5145393919200489385445962
0.4363484798001225350994048 0.03120605858671567783835243 0.5072696959600243582499957
0.4194447269441099468423317 0.006855996618544935375383353 0.5263007235626546709283957
0.4170803660081463526410062 -0.00212727474661765589974971 0.5307923592452360450621995
0.7806504598680599205096087 0.006925531978058238960493931 0.5262750721099980211192815
0.7830193789175737828500701 -0.002187693879030941455227088 0.5308316850385426111103016
0.78051773062278329007313 -0.002815602710550010271545185 0.5402588653113915562187231
0.7756471632784791570003335 -0.0264078013552749187031754 0.545129432655695800313822
0.7756471632784791570003335 0.02077659593417489902744677 0.5451294326556956892915196
0.7781488115732694277326686 -0.02577989252375584641741035 0.525961117694238478037505
0.7685404061299380140681592 -0.0355210272123642756270101 0.5141650183718760036555295
0.7756471632784790459780311 -0.04025886531139157009651086 0.5353882979670873121236241
0.7756471632784790459780311 0.04025886531139158397429867 0.5353882979670873121236241
0.7734109734742420361186532 0.02577989252375584988685731 0.5190355857161802477506285
0.7709093251794515433417132 0.04025886531139158397429867 0.5187216313004205936465496
0.7710420544247283958227968 -0.0166666666666666664353702 0.514478972787635546737306
0.7638025680309106224541438 -0.02677025169624050460193132 0.507239486393817773368653
0.7638025680309106224541438 0.006563081637092830003532562 0.507239486393817773368653
0.4362383158207134847828002 -0.006514021015143787313173007 0.5927523368358573740977135
0.4289906526565707700626717 0.01232398598990413693399226 0.5855046736717145483552827
0.4362383158207134847828002 0.03116199299495207158949839 0.5927523368358573740977135
0.4245266751203043975593232 -0.04018932995187827345029419 0.5647160050721825585995362
0.4219636682363253066263553 -0.025694003623592868296166 0.5741350085747065623564822
0.4315536595405498054844884 -0.03550467367171459415198242 0.5858963402173124057625841
0.4219636682363253066263553 0.025694003623592868296166 0.5741350085747064513341797
0.4315536595405498054844884 0.03550467367171460109087633 0.5858963402173122947402817
0.424526675120304342048172 0.04018932995187827345029419 0.5647160050721825585995362
0.4245266751203043975593232 -0.02056798985563481479976744 0.5549053350240606974352886
0.4196213400962435224883507 0.00295467342957678961307133 0.5598106700481215725062611
0.424526675120304342048172 0.02647733671478839229118663 0.5549053350240606974352886
0.4170583332122644315553828 0.002171340338381261281242018 0.5692296735506455762632072
0.4194006613523462712045387 -0.006855996618544941446915519 0.5737433420291087049491807
0.7830105942061706958412515 0.002170124456224368884871279 0.5691595302500536135426046
0.7806328904452535244473665 -0.006925531978058598048253458 0.5737073584671951165248061
0.7710069155791152706314051 -0.01232641775421784366417732 0.585503457789557701929084
0.7637586444738941882093286 -0.03116320887710887638233359 0.592751728894778895373463
0.7637586444738944102539335 0.006510373368673193390787635 0.592751728894778895373463
0.7733846193400323310029876 -0.02576232310094963076640973 0.5664590873619738120581246
0.7708917557566451472794711 -0.04025886531139193091899386 0.5570406918005282870254291
0.7637586444738940771870261 -0.03550345778955769915352647 0.5782551866843363974624026
0.7637586444738941882093286 0.03550345778955770609242037 0.5782551866843363974624026
0.77814002686186634072385 0.02576232310094963423585668 0.5642889629057495914921105
0.7685140519957280869078886 0.03550345778955770609242037 0.5615885200176697900076306
0.780517730622783512117735 -0.01666666666666666296592325 0.5597411346886080885099091
0.7756471632784791570003335 -0.01255673739915807995970454 0.554870567344304066459415
0.7756471632784791570003335 0.02077659593417525638048282 0.5548705673443039554371126
0.4399773243893201901677514 -0.002030404846077162733797294 0.6420077292353972842064991
0.4319770683415639078717163 0.01531838695805101333013987 0.6340154584707946572308401
0.4399773243893201901677514 0.03266717876217918592463008 0.6420077292353973952288015
0.436261391574646939517379 -0.03550467367171458721308852 0.6217660652463615766905036
0.4297583360109640815416299 -0.01952013214250943040628528 0.6304404611484255571696167
0.4385031996591802205820443 -0.03401545847079483209096651 0.6398594646509494499042603
0.4297583360109641370527811 0.01952013214250944428407308 0.6304404611484256681919192
0.4385031996591802760931955 0.03401545847079484596875432 0.6398594646509496719488652
0.4362613915746469950285302 0.03550467367171460109087633 0.6217660652463615766905036
0.4362383158207134847828002 -0.006514021015143783843726055 0.6072476631641426925156679
0.4289906526565707700626717 0.01232398598990414387288617 0.6144953263282852962134939
0.4362383158207134847828002 0.03116199299495207852839229 0.6072476631641426925156679
0.4224875970928878565757714 0.0006821251374615149411576032 0.6231697222303493877149094
0.4232322046933477133201507 -0.002171340338381252607624639 0.6245964549682707644961965
0.777514761823796973772005 0.0006892747351443962323253034 0.6231745129113475112347942
0.7767743369632569283567136 -0.002170124456224671594117837 0.6246042125070319084301218
0.7680119614364265823169831 -0.01535462659743581925742006 0.6340226080684776555074222
0.7599900107701362816925439 -0.03271056799924688257563687 0.6420113040342387833447901
0.7599900107701362816925439 0.002001314804375253168094995 0.6420113040342387833447901
0.7687856409974954674524383 -0.01952606585803573491233465 0.6166155165412707805927539
0.7622777947528144304456532 -0.03550345778955799058707044 0.6079375458403653009753498
0.7600232654706653434573127 -0.03402260806847774016192787 0.6260339121027164166477519
0.7600232654706651214127078 0.03402260806847773322303397 0.6260339121027165276700543
0.7702664907185756693053236 0.01952606585803572797344074 0.6159262418061265398350201
0.7615373698922742740080594 0.03402260806847774016192787 0.6093672454360499202152823
0.771006915579115714720615 -0.01666666666666666990481716 0.6144965422104420316173901
0.763758644473894521276236 -0.02682295996465984891377055 0.607248271105221060217616
0.763758644473894521276236 0.006510373368673484824331599 0.607248271105221060217616
0.442285265022855589300832 0.003799480157660473263192547 0.6615142151348046839487438
0.4345705300457112785217362 -0.01666666666666667337426411 0.6691850051016856593122384
0.442285265022855589300832 -0.02953385317567286394435655 0.6615142151348046839487438
0.4260949723691428436822548 -0.0002844486864701728859317065 0.6763794210556126618172357
0.4253341496697187751330205 0.001237196712377925614939622 0.6759030470426587999810408
0.432952723803620820319793 -0.0185539994422319193256854 0.6669601969912617445146452
0.4416111251685477800954516 -0.0345705300457112840728513 0.6602330734121634181477134
0.425151305981360194685692 -0.002171781462035415367906044 0.6754357546678300128206729
0.425151305981360194685692 0.00217178146203537373454262 0.6754357546678300128206729
0.432952723803620820319793 0.01855399944223189850900368 0.6669601969912617445146452
0.4416111251685477800954516 0.0345705300457112771339574 0.6602330734121634181477134
0.4399933189264573218935084 -0.001998415771802960864966803 0.6580082653017395033501202
0.4320090574158381713232302 0.01531838695805099077873468 0.6660165306034790955180824
0.4399933189264573218935084 0.03263518968790495716758571 0.6580082653017396143724227
0.4242076395935776567114317 0.0002844486864701314151986089 0.6744920882800473638241101
0.4243904832819361261364577 -0.0006501360631873169754549324 0.674959380654876150984478
0.4884584854048745761190276 -0.003856048504371717509237039 0.6923145339092463546037948
0.4807574418385676673359796 0.01410635264745436004418799 0.6846290678184927536165105
0.4884584854048745761190276 0.03206875379928045277644344 0.6923145339092463546037948
0.4730719757478141218598466 -0.03462906781849274528983784 0.6769290089652209019277507
0.4730719757478141218598466 0.03462906781849275222873175 0.6769290089652209019277507
0.457685466090753501067212 0.003858017930441944888519945 0.6615434840211954492517066
0.4653709321815071575656475 -0.01410438322138414524165029 0.669243542874467189918164
0.457685466090753501067212 -0.03206678437321022756556488 0.6615434840211954492517066
0.7423418800915976278886887 0.003926117562442378930431808 0.6615842374708447160003288
0.7346837601831952557773775 -0.0166666666666666664353702 0.6693049388728189441621907
0.7423418800915976278886887 -0.02940721577089094873613817 0.6615842374708447160003288
0.7193087195333141004027766 -0.01408341463309578309170966 0.684683760183195322390759
0.7115917987918352061171845 -0.03210050814962446541489527 0.6923418800915976945020702
0.7115917987918352061171845 0.003933678883432913976625489 0.6923418800915976945020702
0.7270256402747905521977145 -0.03468376018319535569744971 0.6616468189644140185379229
0.7116505996249093968231136 -0.03468376018319535569744971 0.677025640274790618811096
0.7116505996249093968231136 0.03468376018319536263634362 0.6770256402747905077887935
0.7270256402747904411754121 0.03468376018319535569744971 0.6616468189644140185379229
0.7756769800574209172694395 0.0002431198462621415542529724 0.6745661397888411681122989
0.7755208299134070948355202 -0.0005554201342898582504856164 0.6749654097791172313591801
0.7746946226799309442867525 -0.0010969943326625826007098 0.6757916170125934929302502
0.7740245655904685051496017 0.0002431198462621415542529724 0.6762185542557936912544392
0.7673541030602883949995885 -0.01746520664721865415125457 0.6667986829259985315232484
0.7595552298384393719032914 -0.03388875346762319773485927 0.6583437896695341073893815
0.7662397294234664091305831 -0.0180067808455913781762181 0.6686245691124190759779822
0.7587430596598101484318022 -0.033576453179595448783612 0.660030905016100288840164
0.7665278958268120224062159 0.01800678084559139899289981 0.6676248901594746820720161
0.7580730025703477092946514 0.03443032766599593563761061 0.6604578422593003761420505
0.7677219566915580717392231 0.01746520664721867496793628 0.6665105165226528072253132
0.7593990796944255494693721 0.0335764531795954557225059 0.6587430596598100596139602
0.7678781068355720051954449 -0.01666666666666665602702935 0.6661112465323767439784319
0.7599230834697090486429261 -0.03146587312981259654254274 0.6580556232661882720691437
0.7599230834697090486429261 0.001867460203520733942952892 0.6580556232661882720691437
0.7577848361670019849967161 0.003672685045242961472677923 0.661457521212244881070319
0.7655696723340039699934323 -0.01409097595408629645385989 0.6690515063556193853244736
0.7577848361670019849967161 -0.03185463695341556739082378 0.661457521212244881070319
0.4919916745490385268091416 0.002001454372279745826113118 0.7100097798232412049657114
0.4839833490980770536182831 -0.01666666666666664908813544 0.7179924017351784204521437
0.4919916745490385268091416 -0.03133187896105358444254207 0.7100097798232412049657114
0.475508127099554700478734 -0.0002837773303782315848821372 0.7257919044299327993030602
0.4750412305519936539965897 0.0006500157647437990919916939 0.7256087852127501847121493
0.481761566924250594912138 -0.01854991699510742317325018 0.7163750572671899741195034
0.4907115175394323736135505 -0.0339833490980770980272041 0.7093340605194732306770788
0.4745665019353342839458776 -0.002167027658819005615786768 0.7248502792657124382813549
0.4745665019353342839458776 0.002167027658819054188044095 0.7248502792657124382813549
0.481761566924250594912138 0.01854991699510746133716665 0.7163750572671899741195034
0.4907115175394323736135505 0.03398334909807711884388581 0.7093340605194731196547764
0.4884897353656058038851029 -0.003793548582909284962172425 0.7077167160514848953667411
0.4808199417600301783792816 0.01410635264745438779976361 0.7154334321029696130977982
0.4884897353656058038851029 0.0320062538778180458165501 0.7077167160514848953667411
0.4736248767711138674130211 0.0002837773303782801029293559 0.7239086541014920772596497
0.4740996053877732929748845 -0.001233234563696974667862394 0.7246671600485297126681417
0.5427664769948887801831461 0.00659886196933324661872966 0.7138323849744443450049403
0.5355329539897777380019761 -0.01666666666666664214924154 0.7210659079795556092307152
0.5427664769948887801831461 -0.0267344713640000897214577 0.7138323849744444560272427
0.5268574862429483696146804 -0.0006842688269919968303139912 0.7275417550699405655478813
0.5254155415012300434085546 0.00219962065644439125344789 0.726784079155214368661575
0.5282745243159691073131512 -0.03553295398977768249082487 0.7138074783057468675195878
0.5174243425813928043410783 -0.01955055615010303782241863 0.7187843307121530855852143
0.5116078576493024998583792 -0.03553295398977768249082487 0.7122835769530704297380908
0.519599056569139627903553 0.01955055615010307251688815 0.7202833253961318238367539
0.5101659129075841736522534 0.03401760216032537198493912 0.7115259010383443438740869
0.5282745243159691073131512 0.03553295398977771024640049 0.7138074783057468675195878
0.5079911989198372390674763 0.002035707434527995497719477 0.7100269063543653835779423
0.5159823978396744781349526 -0.01531522805913069357197642 0.7180266547974267776766055
0.5079911989198372390674763 -0.03266616355278938871320449 0.7100269063543654946002448
0.5953898560629908853769621 0.02233913637794437967443173 0.7269492803149535387063906
0.5907797121259815709137797 -0.01666666666666659357698421 0.731559424251962853169573
0.5953898560629908853769621 -0.01099419695538896013520258 0.7269492803149534276840882
0.5813465684644258946178752 -0.002199620656444424646874802 0.7335461891208703288924653
0.5765235687398796438074555 0.007446378792648268227227781 0.7309228100527684901521752
0.5861695681889720344059924 -0.04077971212598150568817701 0.7269492803149534276840882
0.5692900457347684906039831 -0.02631266611575933805911021 0.7236892870476574479710052
0.5695029015223054269512204 -0.04077971212598149874928311 0.721702522178749750203508
0.5767364245274166911769953 0.02631266611575944214251876 0.7289360451838611254515854
0.5646799017977590651184983 0.03553295398977786290206637 0.7190791431106478004409155
0.5861695681889722564505973 0.04077971212598158895490386 0.7269492803149535387063906
0.5572335230051109755677885 0.00659886196933339320286338 0.7138323849744443450049403
0.5644670460102221287712609 -0.01226742535377778331451282 0.7210659079795554982084127
0.5572335230051109755677885 -0.03113371267688896937286813 0.7138323849744443450049403