/*--------------------------------*- C++ -*----------------------------------*\
| =========                 |                                                 |
| \\      /  F ield         | OpenFOAM: The Open Source CFD Toolbox           |
|  \\    /   O peration     | Version:  v2012                                 |
|   \\  /    A nd           | Website:  www.openfoam.com                      |
|    \\/     M anipulation  |                                                 |
\*---------------------------------------------------------------------------*/
FoamFile
{
    version     2.0;
    format      ascii;
    class       volScalarField;
    location    "1.6";
    object      alpha.water;
}
// * * * * * * * * * * * * * * * * * * * * * * * * * * * * * * * * * * * * * //

dimensions      [0 0 0 0 0 0 0];


internalField   nonuniform List<scalar> 
96000
(
0
0
0
0
0
0
0
0
0
0
0
0
0
0
0
0
0
0
0
0
0
0
0
0
0
0
0
0
0
0
0
0
0
0
0
0
0
0
0
0
0
0
0
0
0
0
0
0
0
0
0
0
0
0
0
0
0
0
0
0
0
0
0
0
0
0
0
0
0
0
0
0
0
0
0
0
0
0
0
0
0
0
0
0
0
0
0
0
0
0
0
0
0
0
0
0
0
0
0
0
0
0
0
0
0
0
0
0
0
0
0
0
0
0
0
0
0
0
0
0
0
0
0
0
0
0
0
0
0
0
0
0
0
0
0
0
0
0
0
0
0
0
0
0
0
0
0
0
0
0
0
0
0
0
0
0
0
0
0
0
0
0
0
0
0
0
0
0
0
0
0
0
0
0
0
0
0
0
0
0
0
0
0
0
0
0
0
0
0
0
0
0
0
0
0
0
0
0
0
0
0
0
0
0
0
0
0
0
0
0
0
0
0
0
0
0
0
0
0
0
0
0
0
0
0
0
0
0
0
0
0
0
0
0
0
0
0
0
0
0
0
0
0
0
0
0
0
0
0
0
0
0
0
0
0
0
0
0
0
0
0
0
0
0
0
0
0
0
0
0
0
0
0
0
0
0
0
0
0
0
0
0
0
0
0
0
0
0
0
0
0
0
0
0
0
0
0
0
0
0
0
0
0
0
0
0
0
0
0
0
0
0
0
0
0
0
0
0
0
0
0
0
0
0
0
0
0
0
0
0
0
0
0
0
0
0
0
0
0
0
0
0
0
0
0
0
0
0
0
0
0
0
0
0
0
0
0
0
0
0
0
0
0
0
0
0
0
0
0
0
0
0
0
0
0
0
0
0
0
0
0
0
0
0
0
0
0
0
0
0
0
0
0
0
0
0
0
0
0
0
0
0
0
0
0
0
0
0
0
0
0
0
0
0
0
0
0
0
0
0
0
0
0
0
0
0
0
0
0
0
0
0
0
0
0
0
0
0
0
0
0
0
0
0
0
0
0
0
0
0
0
0
0
0
0
0
0
0
0
0
0
0
0
0
0
0
0
0
0
0
0
0
0
0
0
0
0
0
0
0
0
0
0
0
0
0
0
0
0
0
0
0
0
0
0
0
0
0
0
0
0
0
0
0
0
0
0
0
0
0
0
0
0
0
0
0
0
0
0
0
0
0
0
0
0
0
0
0
0
0
0
0
0
0
0
0
0
0
0
0
0
0
0
0
0
0
0
0
0
0
0
0
0
0
0
0
0
0
0
0
0
0
0
0
0
0
0
0
0
0
0
0
0
0
0
0
0
0
0
0
0
0
0
0
0
0
0
0
0
0
0
0
0
0
0
0
0
0
0
0
0
0
0
0
0
0
0
0
0
0
0
0
0
0
0
0
0
0
0
0
0
0
0
0
0
0
0
0
0
0
0
0
0
0
0
0
0
0
0
0
0
0
0
0
0
0
0
0
0
0
0
0
0
0
0
0
0
0
0
0
0
0
0
0
0
0
0
0
0
0
0
0
0
0
0
0
0
0
0
0
0
0
0
0
0
0
0
0
0
0
0
0
0
0
0
0
0
0
0
0
0
0
0
0
0
0
0
0
0
0
0
0
0
0
0
0
0
0
0
0
0
0
0
0
0
0
0
0
0
0
0
0
0
0
0
0
0
0
0
0
0
0
0
0
0
0
0
0
0
0
0
0
0
0
0
0
0
0
0
0
0
0
0
0
0
0
0
0
0
0
0
0
0
0
0
0
0
0
0
0
0
0
0
0
0
0
0
0
0
0
0
0
0
0
0
0
0
0
0
0
0
0
0
0
0
0
0
0
0
0
0
0
0
0
0
0
0
0
0
0
0
0
0
0
0
0
0
0
0
0
0
0
0
0
0
0
0
0
0
0
0
0
0
0
0
0
0
0
0
0
0
0
0
0
0
0
0
0
0
0
0
0
0
0
0
0
0
0
0
0
0
0
0
0
0
0
0
0
0
0
0
0
0
0
0
0
0
0
0
0
0
0
0
0
0
0
0
0
0
0
0
0
0
0
0
0
0
0
0
0
0
0
0
0
0
0
0
0
0
0
0
0
0
0
0
0
0
0
0
0
0
0
0
0
0
0
0
0
0
0
0
0
0
0
0
0
0
0
0
0
0
0
0
0
0
0
0
0
0
0
0
0
0
0
0
0
0
0
0
0
0
0
0
0
0
0
0
0
0
0
0
0
0
0
0
0
0
0
0
0
0
0
0
0
0
0
0
0
0
0
0
0
0
0
0
0
0
0
0
0
0
0
0
0
0
0
0
0
0
0
0
0
0
0
0
0
0
0
0
0
0
0
0
0
0
0
0
0
0
0
0
0
0
0
0
0
0
0
0
0
0
0
0
0
0
0
0
0
0
0
0
0
0
0
0
0
0
0
0
0
0
0
0
0
0
0
0
0
0
0
0
0
0
0
0
0
0
0
0
0
0
0
0
0
0
0
0
0
0
0
0
0
0
0
0
0
0
0
0
0
0
0
0
0
0
0
0
0
0
0
0
0
0
0
0
0
0
0
0
0
0
0
0
0
0
0
0
0
0
0
0
0
0
0
0
0
0
0
0
0
0
0
0
0
0
0
0
0
0
0
0
0
0
0
0
0
0
0
0
0
0
0
0
0
0
0
0
0
0
0
0
0
0
0
0
0
0
0
0
0
0
0
0
0
0
0
0
0
0
0
0
0
0
0
0
0
0
0
0
0
0
0
0
0
0
0
0
0
0
0
0
0
0
0
0
0
0
0
0
0
0
0
0
0
0
0
0
0
0
0
0
0
0
0
0
0
0
0
0
0
0
0
0
0
0
0
0
0
0
0
0
0
0
0
0
0
0
0
0
0
0
0
0
0
0
0
0
0
0
0
0
0
0
0
0
0
0
0
0
0
0
0
0
0
0
0
0
0
0
0
0
0
0
0
0
0
0
0
0
0
0
0
0
0
0
0
0
0
0
0
0
0
0
0
0
0
0
0
0
0
0
0
0
0
0
0
0
0
0
0
0
0
0
0
0
0
0
0
0
0
0
0
0
0
0
0
0
0
0
0
0
0
0
0
0
0
0
0
0
0
0
0
0
0
0
0
0
0
0
0
0
0
0
0
0
0
0
0
0
0
0
0
0
0
0
0
0
0
0
0
0
0
0
0
0
0
0
0
0
0
0
0
0
0
0
0
0
0
0
0
0
0
0
0
0
0
0
0
0
0
0
0
0
0
0
0
0
0
0
0
0
0
0
0
0
0
0
0
0
0
0
0
0
0
0
0
0
0
0
0
0
0
0
0
0
0
0
0
0
0
0
0
0
0
0
0
0
0
0
0
0
0
0
0
0
0
0
0
0
0
0
0
0
0
0
0
0
0
0
0
0
0
0
0
0
0
0
0
0
0
0
0
0
0
0
0
0
0
0
0
0
0
0
0
0
0
0
0
0
0
0
0
0
0
0
0
0
0
0
0
0
0
0
0
0
0
0
0
0
0
0
0
0
0
0
0
0
0
0
0
0
0
0
0
0
0
0
0
0
0
0
0
0
0
0
0
0
0
0
0
0
0
0
0
0
0
0
0
0
0
0
0
0
0
0
0
0
0
0
0
0
0
0
0
0
0
0
0
0
0
0
0
0
0
0
0
0
0
0
0
0
0
0
0
0
0
0
0
0
0
0
0
0
0
0
0
0
0
0
0
0
0
0
0
0
0
0
0
0
0
0
0
0
0
0
0
0
0
0
0
0
0
0
0
0
0
0
0
0
0
0
0
0
0
0
0
0
0
0
0
0
0
0
0
0
0
0
0
0
0
0
0
0
0
0
0
0
0
0
0
0
0
0
0
0
0
0
0
0
0
0
0
0
0
0
0
0
0
0
0
0
0
0
0
0
0
0
0
0
0
0
0
0
0
0
0
0
0
0
0
0
0
0
0
0
0
0
0
0
0
0
0
0
0
0
0
0
0
0
0
0
0
0
0
0
0
0
0
0
0
0
0
0
0
0
0
0
0
0
0
0
0
0
0
0
0
0
0
0
0
0
0
0
0
0
0
0
0
0
0
0
0
0
0
0
0
0
0
0
0
0
0
0
0
0
0
0
0
0
0
0
0
0
0
0
0
0
0
0
0
0
0
0
0
0
0
0
0
0
0
0
0
0
0
0
0
0
0
0
0
0
0
0
0
0
0
0
0
0
0
0
0
0
0
0
0
0
0
0
0
0
0
0
0
0
0
0
0
0
0
0
0
0
0
0
0
0
0
0
0
0
0
0
0
0
0
0
0
0
0
0
0
0
0
0
0
0
0
0
0
0
0
0
0
0
0
0
0
0
0
0
0
0
0
0
0
0
0
0
0
0
0
0
0
0
0
0
0
0
0
0
0
0
0
0
0
0
0
0
0
0
0
0
0
0
0
0
0
0
0
0
0
0
0
0
0
0
0
0
0
0
0
0
0
0
0
0
0
0
0
0
0
0
0
0
0
0
0
0
0
0
0
0
0
0
0
0
0
0
0
0
0
0
0
0
0
0
-1.820834275839328565188252e-49
-2.574162646109177012764307e-37
-8.970188963276073612149133e-36
-1.558553643236358928057844e-34
-1.800281330497079801868812e-33
-1.555300775725877914037432e-32
-1.071954350504610797939796e-31
-6.139855047122869974287562e-31
-3.006056663499597094027991e-30
-1.284253441375216176056747e-29
-4.863628772794022083481971e-29
-1.653191236682811879568835e-28
-5.094542029169363459752687e-28
-5.567651841642932128209606e-28
-6.065765587915985676736611e-28
-6.587338667213721763722532e-28
-7.130307430982165956177155e-28
-7.692054661015472573218695e-28
-8.269382977564028666674827e-28
-8.858498289741635736356101e-28
-9.45500543091689537696899e-28
-1.005391806946177361589527e-27
-1.064968483517519945686588e-27
-1.1236233340760561725409e-27
-1.180703339594002722559734e-27
-1.235518020377161817326078e-27
-1.287349769515450002095685e-27
-1.335466140644393490596246e-27
-1.379133945319737185462994e-27
-1.417634922644278091168196e-27
-1.450282647234634462353253e-27
-1.476440245706687466656797e-27
-1.495538401952264874035389e-27
-1.507093053558144579691023e-27
-1.510722122093267274574031e-27
-1.50616058489376370743763e-27
-1.493273191103769620683931e-27
-1.472064154702272684730477e-27
-1.442683225077589126708807e-27
-1.405427642286462375877096e-27
-1.360739627806861419119515e-27
-1.309199237891144869153356e-27
-1.251512608195543871984996e-27
-1.188495835143130386357694e-27
-1.121054959151496525508207e-27
-1.05016272358412170027647e-27
-9.76832966669575317860198e-28
-9.020936478800381760499445e-28
-8.269596034047916615866182e-28
-7.524061584558410271151397e-28
-6.793446923068505069416346e-28
-6.086011550614638856679079e-28
-5.408983781074724605871907e-28
-4.768428128627065697493138e-28
-4.169160887936790943109323e-28
-3.614715189043902391599024e-28
-3.107354176584174161055619e-28
-2.648128512299983085507521e-28
-2.236972299044501675631971e-28
-1.872829908801699278095558e-28
-1.553805157021911776306491e-28
-1.277323839654251333751515e-28
-1.040300823681885480497732e-28
-8.393035942852331579784435e-29
-6.707053100974880813178547e-29
-5.308218736854680253985448e-29
-4.160291462728916946676759e-29
-3.228580847074452896864281e-29
-2.48067130414469276379906e-29
-1.886925348212435999237954e-29
-1.420783943699039967406515e-29
-1.058889543782152750272367e-29
-7.810621936916201554749755e-30
-6.135990289099316354216006e-30
-4.600694826489089202539268e-30
-3.300574957679703499883102e-30
-2.270591060883906340712716e-30
-1.500784407627090538744027e-30
-9.547371995466135181293757e-31
-5.854839812689216618623618e-31
-3.46598035504062058473111e-31
-1.983240349516748862078498e-31
-1.098177602846112437513674e-31
-5.890950440562332471903103e-32
-3.064391473087965018158036e-32
-1.547202162488921447154947e-32
-7.588617885388793578609021e-33
-3.618546166048351483303775e-33
-1.678731389685996557164839e-33
-7.582335128533531659102714e-34
-3.336411390714539948534142e-34
-1.431113830419702264919507e-34
-5.98734515378616264513939e-35
-2.444518447113102895551211e-35
-9.74477072055238461954483e-36
-3.79470168962795739435402e-36
-1.444138290882477040028578e-36
-5.373438721242341494974225e-37
-1.955626973133824789374828e-37
-6.964324790548245744242391e-38
-2.427684433633496837000101e-38
-8.286650365760140336315219e-39
-2.770675163109231134293233e-39
-9.077194187544523743181692e-40
-2.914811178525445317965789e-40
-9.176762981169937893463378e-41
-2.83341945296135010016079e-41
-8.582054398017608145408568e-42
-2.550601025787540091081243e-42
-7.439981329235193977095438e-43
-2.130502050077150110093357e-43
-5.990614888306322903518093e-44
-1.654377880140044414165356e-44
-4.488100878471467389581918e-45
-1.196305642889046238745818e-45
-3.133696332322150575350402e-46
-8.068394120763906616104864e-47
-2.042253913830682939435306e-47
-5.082749528942860375526283e-48
-1.244013031277622890128592e-48
-2.994721340714642372632473e-49
-7.091831131082397879529923e-50
-1.652316818495463803868993e-50
-3.788096764193186001352083e-51
-8.546707615934900829960034e-52
-1.897935141609586902970138e-52
-4.148783946829556817466081e-53
-8.928262035956757450738698e-54
-1.891764073593075196601445e-54
-3.946987967354385040966689e-55
-8.109719442680259432177257e-56
-1.641069715164570378436655e-56
-3.270897368663272003805569e-57
-6.421855115526509209639114e-58
-1.242053356121121602117893e-58
-2.366660778665874454936457e-59
-4.442985842951904040956258e-60
-8.218287523095539213581023e-61
-1.497878556634645564887563e-61
-2.690165634583534688120179e-62
-4.761058846948863045854213e-63
-8.303508075022107285039601e-64
-1.427121012420988009364062e-64
-2.417155171438939399500569e-65
-4.034517785963192669770966e-66
-6.636144829995065362398475e-67
-1.075635816830322254637305e-67
-1.717993343384454502683212e-68
-2.703702228265547275758168e-69
-4.192213004121711598130187e-70
-6.403701973198464571720123e-71
-9.635337448360702416490869e-72
-1.427848085613647916278725e-72
-2.083489497189304972934723e-73
-2.99288596497301120170713e-74
-4.231065194423314182238432e-75
-5.884520132071392239100819e-76
-8.047802489572219105079534e-77
-1.081690151341682365970938e-77
-1.427836216947704415164717e-78
-1.849308554616281136085876e-79
-2.347388184101704790528281e-80
-2.915616020361138947857414e-81
-3.536167952788662305356529e-82
-4.175607153556222028833287e-83
-4.780187437142455478269087e-84
-5.271003372757478399501134e-85
-5.539414394222685933504785e-86
-5.443296858113054964954307e-87
-4.804780976352597220026518e-88
-3.410187039478629797623733e-89
-1.012865262347741142476897e-90
2.6604531323024190689261e-91
7.899381500534976851065062e-92
1.49955637865717379915978e-92
2.422458870643280008750808e-93
3.582484463671927786069343e-94
4.997449129851700351726211e-95
6.67681531113551535373528e-96
8.61952735513190795293204e-97
1.08122252014386807016265e-97
1.322804668762602807044833e-98
1.582620417873649357877495e-99
1.855247336264141870960477e-100
2.134066365248217884963395e-101
2.411505631296564679956472e-102
2.679370629764470159228207e-103
2.929241658907525346260461e-104
3.152911973348609009823724e-105
3.342834948229864503142722e-106
3.492546298051004633227205e-107
3.597028447365375436833404e-108
3.652988483468286351590286e-109
3.659028315808600717310016e-110
3.61569495686441573285651e-111
3.525409209579449120414489e-112
3.392281366962970239396968e-113
3.221831702762105804314934e-114
3.020640632904638992349723e-115
2.795957813104098124470883e-116
2.555300814943865032260294e-117
2.30607246134070530111388e-118
2.055221801627879520948038e-119
1.808967717719943162880657e-120
1.572597075419469747388267e-121
1.350342003857484697405233e-122
1.145334066262101031783768e-123
9.59627388086786309199555e-125
7.942786387754795809529882e-126
6.494693005746556116755686e-127
5.246548688434054489394904e-128
4.187263060403252338232508e-129
3.301708883954565508611113e-130
2.572221520217859809598885e-131
1.979915713696571121693652e-132
1.505775366424532679461105e-133
1.131498603598785705641781e-134
8.401024791657920808952973e-136
6.163081431284562110349175e-137
4.467380118523581548360425e-138
3.199618980717462993203184e-139
2.264300412493744785551449e-140
1.58328621551081484296179e-141
1.093887719546474241853741e-142
7.467435843311374092322405e-144
5.036773294873028848524821e-145
3.356691303524721288694642e-146
2.210261708032273608648796e-147
1.437949945326882880151454e-148
9.242838807786885707291304e-150
5.869777102413296021181282e-151
3.682857053856963106811792e-152
2.282899934026547239720921e-153
1.398037221342426973696418e-154
8.458062317622724721844472e-156
5.055139234993509381070508e-157
2.984658435062376993235318e-158
1.740780386097184759482235e-159
1.002926492967984412013094e-160
5.707649833766439377001815e-162
3.208450574899908883961101e-163
1.781432242299996484424982e-164
9.769327880510233074963978e-166
5.291348646631443599944469e-167
2.830470741004909370037403e-168
1.495289335291590862911581e-169
7.800979542883973827281925e-171
4.018952077336405904246596e-172
2.044551862376560540550133e-173
1.027037395954491216750325e-174
5.093986430741486711380827e-176
2.494552543161578498413515e-177
1.206063511035960032541469e-178
5.756639154340152481973005e-180
2.71248374318264677813583e-181
1.261658811364498850400446e-182
5.792552966835161492473082e-184
2.624988400949688374504248e-185
1.17405741287035519102967e-186
5.18239403596584748518417e-188
2.257483249305488453277239e-189
9.703865770902609051319707e-191
4.115887979806422762061356e-192
1.722473135906080888409882e-193
7.111846293017866251767581e-195
2.896832046628529027942736e-196
1.163977455649172252307597e-197
4.613330201035786833948328e-199
1.803436299634163866680835e-200
6.952965555381788908988862e-202
2.643553943910585176645115e-203
9.911058033776173809974378e-205
3.663781691666012190779804e-206
1.335303268592023503370037e-207
4.797699452956451152729642e-209
1.699221551904311454895856e-210
5.931859078755187488387556e-212
2.040865724052781875947399e-213
6.91956311465093673388069e-215
2.311746852557165926819698e-216
7.609476721527258002819197e-218
2.467610413889363828273054e-219
7.882406253750538853963272e-221
2.480009344478983547962152e-222
7.684412278602914969347735e-224
2.344660872928329635277882e-225
7.043836363531164065367162e-227
2.083265801223440677816183e-228
6.065005280127053750135235e-230
1.737849161533192742671362e-231
4.900372533697572509146831e-233
1.359634918340184019105983e-234
3.711334285278837279901769e-236
9.965267672391255162472293e-238
2.631683942687388742288418e-239
6.834349476162006333744467e-241
1.745059187230100850827245e-242
4.380275627738943200885479e-244
1.080681314980203241251008e-245
2.620131968997856374529428e-247
6.241659618592280337477556e-249
1.460656311635436844841914e-250
3.35725377958542071472858e-252
7.577448211503697776618199e-254
1.679098648432065716785895e-255
3.652184992630123524552474e-257
7.795761416272761824403432e-259
1.632662027532198380433482e-260
3.354018958031885174997593e-262
6.757129743317815403988485e-264
1.334685630635358623859356e-265
2.584070624642683687946147e-267
4.902562790298466824488443e-269
9.11204600281904419167255e-271
1.658665384696450595624366e-272
2.956128959718705069718714e-274
5.156753981824728784992402e-276
8.801962162910184739656016e-278
1.46956511266718857064021e-279
2.399136256832697824040475e-281
3.82844306716467950357366e-283
5.969373146821758433341303e-285
9.090877234533292369953363e-287
1.35169113597945467428604e-288
1.96137290449250171050989e-290
2.776273147976671028603929e-292
3.831626209520069300692064e-294
5.153631307313238845513674e-296
6.752013071903775096665552e-298
8.612173686508126030282175e-300
1.068834258766826880602932e-301
1.289948407932619169942787e-303
1.512975507401804621553155e-305
1.723487310482164291387838e-307
1.90548137087405515025336e-309
2.043191243390485557397753e-311
2.123197113559397889448534e-313
2.136458428372551956190086e-315
2.081004500283330444071708e-317
1.976262583364986176706275e-319
0
0
0
0
0
0
0
0
0
0
0
0
0
0
0
0
0
0
0
0
0
0
0
0
0
0
0
0
0
0
0
0
0
0
0
0
0
0
0
0
0
0
0
0
0
0
0
0
0
0
0
0
0
0
0
0
0
0
0
-5.833216806196445504778328e-35
-2.044404511630420829362858e-33
-3.571801762544661161764341e-32
-4.147626971328199567091684e-31
-3.601204175331482917343813e-30
-2.493743078679506060665952e-29
-1.434603717957916872851145e-28
-7.052038968407305190194542e-28
-3.023756123616826816786473e-27
-1.148840446739616054018991e-26
-3.915984903130764401306008e-26
-1.209617622530475072292062e-25
-3.414114457088599057909255e-25
-8.866467494350867051407993e-25
-9.376483227448923826464415e-25
-9.881226057276003857566859e-25
-1.037589379968449586676321e-24
-1.085538727889959575240036e-24
-1.131437280735680670487942e-24
-1.17473571820533158394825e-24
-1.214877463135643328645417e-24
-1.251308466078916366564145e-24
-1.283487922919972634997731e-24
-1.310899715648821169345578e-24
-1.333064314331193880208219e-24
-1.349550829799969475756772e-24
-1.359988864491915465015651e-24
-1.364079776171087181436651e-24
-1.36160694897729262164528e-24
-1.352444661056651711500215e-24
-1.336565150280465331788641e-24
-1.314043510889535708874708e-24
-1.285060105095703729046835e-24
-1.249900244451352136456214e-24
-1.208950984677508899384346e-24
-1.162694981856891263158016e-24
-1.111701473409933041455009e-24
-1.056614568872338553593143e-24
-9.981391570218382500892811e-25
-9.370248505651297072900664e-25
-8.740484903811681098863785e-25
-8.099958114777977746160013e-25
-7.456429263999221577909258e-25
-6.817383041810945212580781e-25
-6.189859111805637830256967e-25
-5.580301335496487679955909e-25
-4.994430212184823227117954e-25
-4.437142841470529806732972e-25
-3.912443392839497888236032e-25
-3.423405591641181741025173e-25
-2.972167195249208777838773e-25
-2.559954934301414766138575e-25
-2.187137026168105968608699e-25
-1.853299215505977209186467e-25
-1.557339427045468860604471e-25
-1.297575573186388623432575e-25
-1.071860862237004558325909e-25
-8.777010942607363809777757e-26
-7.123688775823166493741039e-26
-5.730103962347446387525553e-26
-4.567412381184283171666184e-26
-3.607287784136968104179396e-26
-2.822596250437618775680244e-26
-2.187916009252259478407869e-26
-1.67990601188337396986431e-26
-1.277533778935766907496645e-26
-9.621784298529007864068753e-27
-7.176283290084861585532784e-27
-5.299945193138365296327699e-27
-3.875612557721358988698249e-27
-2.80593783407158771177181e-27
-2.011213625067069362242729e-27
-1.427107764695447357695391e-27
-1.00242489530568996158526e-27
-7.10097269949697308577955e-28
-4.826049190247109096513931e-28
-3.153391304228857796559928e-28
-1.984646403980936856686024e-28
-1.205123647028234321000689e-28
-7.070921568817294433785831e-29
-4.014276549341834777121203e-29
-2.207812815174694377855973e-29
-1.177687689064077000521446e-29
-6.098991352785640931351343e-30
-3.069413873934934306159832e-30
-1.502444586627557249766948e-30
-7.158681013553066339894889e-31
-3.322599679327413514274382e-31
-1.503239049836565904340035e-31
-6.633697663177954336272461e-32
-2.857022069442292016980625e-32
-1.201535303930273094592997e-32
-4.936770617983732163282534e-33
-1.982606599558136992053419e-33
-7.785879747987475001786792e-34
-2.991125485897908780791169e-34
-1.124565200714359492963952e-34
-4.139186653327679095116968e-35
-1.492017731823742611571143e-35
-5.268676818686848065090067e-36
-1.823182860991638692741282e-36
-6.184230077536454976134291e-37
-2.056776827629249596919679e-37
-6.708856041278931683890242e-38
-2.146732455487682975519106e-38
-6.740297120977996334606174e-39
-2.077068722043917880203137e-39
-6.283306899423357089928747e-40
-1.866303490323483976608245e-40
-5.444026679105959146188809e-41
-1.559862103970825658468965e-41
-4.390975082079388092198513e-42
-1.214569432326299609381186e-42
-3.30175831687121063874729e-43
-8.822710027006745693226422e-44
-2.317726341988792329604874e-44
-5.986774169922782479175779e-45
-1.520753789389863718388906e-45
-3.799466981632421604124043e-46
-9.337795415883440116180283e-47
-2.257781626987166404757179e-47
-5.37144662331845847904097e-48
-1.257552423900207140609351e-48
-2.897597979965864443424286e-49
-6.571689217831823112397345e-50
-1.467203654864928844730954e-50
-3.22495689958105068661029e-51
-6.979449878158948403362782e-52
-1.487386575096398739168062e-52
-3.121558720763356305910424e-53
-6.45210910685479604954792e-54
-1.313559999013402894502314e-54
-2.634204562672416455111458e-55
-5.20393214940983842995743e-56
-1.01280356794716057765364e-56
-1.942034223794849055868045e-57
-3.669025640475879884425726e-58
-6.830121294493181896989201e-59
-1.252877959364542741374666e-59
-2.264684997030914786171464e-60
-4.034023493852996573794481e-61
-7.081254388539613010050398e-62
-1.224980166702066255743377e-62
-2.088319576143359518378614e-63
-3.508419047681378050815434e-64
-5.808516395659857532627459e-65
-9.476444045375980788607291e-66
-1.52346665511379245339992e-66
-2.413246648184690485179069e-67
-3.766321046175046411080582e-68
-5.790765458003965347509282e-69
-8.770060816434853541680629e-70
-1.308124153302174756411239e-70
-1.921281150865575178052544e-71
-2.777954368055513813663141e-72
-3.952979322668007969075106e-73
-5.53392015615245074358299e-74
-7.618276986176058751544111e-75
-1.030754531021384106873128e-75
-1.369699907937093424672963e-76
-1.786000756866434466085868e-77
-2.282576755461887246920781e-78
-2.85495907638446475951216e-79
-3.487538173307559862348861e-80
-4.14907076913471054665525e-81
-4.78759069271565333293214e-82
-5.324997233758402755804314e-83
-5.651739890027926342410665e-84
-5.622165798002540580877991e-85
-5.051226417289959676363362e-86
-3.713329693020185844639003e-87
-1.344147701733827422920061e-88
2.353875877458117301658277e-89
7.701746937598109588327887e-90
1.50295866179271943699443e-90
2.46578525098615549817913e-91
3.68747058631484397477468e-92
5.191063818550343972051895e-93
6.991198128052222638284041e-94
9.091535750884033010230851e-95
1.148254140978737223519484e-95
1.413982662310244079968614e-96
1.702329053342239948923382e-97
2.007723945989138249089179e-98
2.323159888630317947405838e-99
2.640424304032644528556857e-100
2.950436672205879602000889e-101
3.243672205750666179058332e-102
3.510645093750878800939821e-103
3.742417320846856242446617e-104
3.931095041804411336722465e-105
4.070274100334239891259252e-106
4.155399693061256826098457e-107
4.184012106182530970042468e-108
4.155860175405466964100941e-109
4.072875583236885594181015e-110
3.939013056440352241505987e-111
3.759972671484820950214449e-112
3.542829660800354941961639e-113
3.295603456775624183362794e-114
3.026800707008489593860337e-115
2.744966553000380601358358e-116
2.458274894138522089018806e-117
2.174182297753767026141035e-118
1.899162523958155360534869e-119
1.638530264470225396863962e-120
1.396354568839967996876946e-121
1.175455330213025015118208e-122
9.774706906261159951114393e-124
8.029796134876762055739873e-125
6.516622157637632165901807e-126
5.224805915265856450962193e-127
4.138644646020549362762887e-128
3.238886563782515093189837e-129
2.50432590728795524496979e-130
1.913154550231711855746494e-131
1.444038393780746305363391e-132
1.076914274832573449706743e-133
7.935245809913641626359583e-135
5.777216129020410619962804e-136
4.155822319260513530848331e-137
2.953763134019000119362838e-138
2.074311708984852045720146e-139
1.439297241734320163120852e-140
9.867399816027655755030101e-142
6.68386326376209754507783e-143
4.473228205669256044250041e-144
2.957866302172244584205263e-145
1.932389208582170305910077e-146
1.247277614937659424777435e-147
7.95384826151854153418776e-149
5.011060345748640533732466e-150
3.118975505373665248159088e-151
1.917853733548683750842481e-152
1.16501288518050510905934e-153
6.99113369182257843092891e-155
4.144340134942273026395553e-156
2.42684886970795214237154e-157
1.403775498965982336462348e-158
8.020613443641088884446437e-160
4.526466576454568560471963e-161
2.523126625362095509463292e-162
1.389096300914206981039805e-163
7.553082295621313760665204e-165
4.056009804586781808767938e-166
2.15100017824216540912848e-167
1.12650132549890543454531e-168
5.82579638598559824828395e-170
2.975042225705361220046875e-171
1.50012166658100990567989e-172
7.468544971734862842682782e-174
3.671146361112716327368197e-175
1.781570256486555801837571e-176
8.535294045860199708758055e-178
4.036699013842025157364138e-179
1.884534094647169861675541e-180
8.684165792738662047564061e-182
3.949796606744378031954858e-183
1.773042821726663848776856e-184
7.854819735420329832949773e-186
3.433994907926993859904118e-187
1.48143528755417605168444e-188
6.3060553706018538762098e-190
2.648479473916856265731763e-191
1.097412961167339056092754e-192
4.485886835334280482693855e-194
1.808841858010071030345174e-195
7.194413878008750239925235e-197
2.822281953992662771906412e-198
1.091898587041686861436918e-199
4.165882429227564396262159e-201
1.567254336109169336123418e-202
5.813581315031905374441494e-204
2.126096148793885585047117e-205
7.665121176598469993379482e-207
2.724038318333346683917885e-208
9.541694692024784380411946e-210
3.293934240973375626791816e-211
1.120570877696108476531071e-212
3.756258763716385410740079e-214
1.240563628528982728454088e-215
4.036308632439922110232231e-217
1.293613826849374274399199e-218
4.0834928414672869207642e-220
1.269452376264325520074551e-221
3.886044196857523880675923e-223
1.171260812346473152953535e-224
3.475365192942389102645735e-226
1.01506334891865028663485e-227
2.917931393755306568146104e-229
8.254447354135309137178008e-231
2.297587362106779335968733e-232
6.291664663467163330620052e-234
1.694748352758869725161766e-235
4.48978729821371402413936e-237
1.169661154935071189111881e-238
2.995980578042814044007338e-240
7.543820663776560871799065e-242
1.866997838278760815710212e-243
4.540679014364710346077813e-245
1.085036688209083656280765e-246
2.547031781769105495797486e-248
5.87229397849848615334926e-250
1.329472113096620902664959e-251
2.955020392642893269807319e-253
6.44704146107743642710392e-255
1.380336916191751192320439e-256
2.899594040501542413874065e-258
5.974702270800702327838396e-260
1.207308893893785759240288e-261
2.391861794896308551200933e-263
4.644703868629955873410936e-265
8.838305282555690477835674e-267
1.647591637178496306209037e-268
3.007987216465314330413641e-270
5.376749802229875117342468e-272
9.406928804162864355483425e-274
1.610355306774705487552907e-275
2.696482549220683847379906e-277
4.414953095087754143822614e-279
7.065642009453473694960674e-281
1.104872858013379191408789e-282
1.687483062278206199088044e-284
2.51626910196997679888049e-286
3.661691430256842115264736e-288
5.197825645124350450239821e-290
7.194102277673867760419558e-292
9.703687815657715658227195e-294
1.274919628927249525376832e-295
1.630739030283696916758546e-297
2.029552631365407768242561e-299
2.456273361328906819121087e-301
2.888995209862654747542314e-303
3.300120262001200984886329e-305
3.658721433338126596551928e-307
3.933986351975203663292339e-309
4.099299609773818585449565e-311
4.136277666478732095125464e-313
4.03797876083467435569333e-315
3.810234260727693348689699e-317
3.557272650056975118071295e-319
0
0
0
0
0
0
0
0
0
0
0
0
0
0
0
0
0
0
0
0
0
0
0
0
0
0
0
0
0
0
0
0
0
0
0
0
0
0
0
0
0
0
0
0
0
0
0
0
0
0
0
0
0
0
0
0
0
0
-7.695743748719073956458793e-37
-1.05231687291060524886631e-33
-3.630353893314641906617362e-32
-6.296263171521666261920918e-31
-7.272736892360383321958846e-30
-6.286018748789499217333055e-29
-4.334587891326971582030153e-28
-2.483436902307327770988864e-27
-1.215840117950778404163344e-26
-5.192076183056516254477756e-26
-1.964553111630304361284464e-25
-6.66840815289884009717595e-25
-2.051004762479935414830355e-24
-5.76353672021091477533168e-24
-1.490064336449280006266405e-23
-1.598721200881527765543527e-23
-1.708705783895676571345265e-23
-1.819088827627233055566519e-23
-1.928841458261306761821379e-23
-2.036844313251723798816672e-23
-2.14190005097910850355136e-23
-2.242749314537178786210138e-23
-2.338090106158532441247463e-23
-2.426600397116680324362591e-23
-2.506963653356945170408645e-23
-2.577896804585032119526045e-23
-2.638180030404967668701029e-23
-2.68668758889179599767997e-23
-2.722418779222670129661782e-23
-2.74452801978539899574654e-23
-2.752352945753697701833591e-23
-2.745439394195484883803212e-23
-2.723562157929372840699981e-23
-2.686740457255305352997383e-23
-2.635247204467474487560048e-23
-2.569611319621661204769961e-23
-2.490612593598494213387691e-23
-2.399268878361114973929094e-23
-2.29681570279318316427568e-23
-2.184678750364689213657512e-23
-2.064439973934450139836039e-23
-1.937798443187129712238822e-23
-1.806527300867115233749143e-23
-1.672428425410335355579768e-23
-1.537286542663157847847067e-23
-1.402824585148366700979202e-23
-1.270662056346255798183992e-23
-1.142278018788617705005679e-23
-1.018980094513514659936741e-23
-9.018805576133564765564842e-24
-7.918802303931172189355811e-24
-6.896604909976010249948504e-24
-5.956832881293079492675929e-24
-5.101986652128686127620145e-24
-4.332589479539024075951527e-24
-3.647384676900120824937915e-24
-3.0435749448670446732421e-24
-2.517089477939412554768265e-24
-2.062864402189510467063989e-24
-1.675122857056712512425087e-24
-1.34764254715142572456575e-24
-1.074000684224223501525585e-24
-8.477887093291480425665574e-25
-6.627918152784022910297014e-25
-5.131308746562911725740667e-25
-3.933667416435727266665763e-25
-2.985689000353270960814818e-25
-2.243519863483247381747011e-25
-1.668847864466731210055929e-25
-1.228768930227786109608419e-25
-8.954836383721606457957042e-26
-6.458750865082798607812389e-26
-4.61014441474342399630674e-26
-3.256338374740579962824426e-26
-2.275986151431122569890538e-26
-1.574573772529584126332235e-26
-1.045026193958583577103592e-26
-6.667321303818932455753875e-27
-4.096686535591670200858607e-27
-2.428232159631151166300073e-27
-1.390515671851725185827012e-27
-7.703427888891563976560999e-28
-4.133884874827888476597975e-28
-2.15128680456460311678494e-28
-1.0868354503416397430383e-28
-5.335555031884005880256997e-29
-2.547644755868187321734011e-29
-1.184148294571094679205281e-29
-5.36191257018012318475041e-30
-2.366979069019356829317362e-30
-1.019349132055642979436768e-30
-4.285268371503501580124155e-31
-1.759599074638773717181629e-31
-7.061012445641693096690405e-32
-2.770504033703331206294426e-32
-1.0633969374387407888977e-32
-3.994564172728220528358083e-33
-1.469131487200977971713539e-33
-5.292213268320036569180141e-34
-1.86791314153182968895717e-34