/*--------------------------------*- C++ -*----------------------------------*\
| =========                 |                                                 |
| \\      /  F ield         | OpenFOAM: The Open Source CFD Toolbox           |
|  \\    /   O peration     | Version:  v2012                                 |
|   \\  /    A nd           | Website:  www.openfoam.com                      |
|    \\/     M anipulation  |                                                 |
\*---------------------------------------------------------------------------*/
FoamFile
{
    version     2.0;
    format      ascii;
    class       volScalarField;
    location    "0.7";
    object      alpha.water;
}
// * * * * * * * * * * * * * * * * * * * * * * * * * * * * * * * * * * * * * //

dimensions      [0 0 0 0 0 0 0];


internalField   nonuniform List<scalar> 
96000
(
0
0
0
0
0
0
0
0
0
0
0
0
0
0
0
0
0
0
0
0
0
0
0
0
0
0
0
0
0
0
0
0
0
0
0
0
0
0
0
0
0
0
0
0
0
0
0
0
0
0
0
0
0
0
0
0
0
0
0
0
0
0
0
0
0
0
0
0
0
0
0
0
0
0
0
0
0
0
0
0
0
0
0
0
0
0
0
0
0
0
0
0
0
0
0
0
0
0
0
0
0
0
0
0
0
0
0
0
0
0
0
0
0
0
0
0
0
0
0
0
0
0
0
0
0
0
0
0
0
0
0
0
0
0
0
0
0
0
0
0
0
0
0
0
0
0
0
0
0
0
0
0
0
0
0
0
0
0
0
0
0
0
0
0
0
0
0
0
0
0
0
0
0
0
0
0
0
0
0
0
0
0
0
0
0
0
0
0
0
0
0
0
0
0
0
0
0
0
0
0
0
0
0
0
0
0
0
0
0
0
0
0
0
0
0
0
0
0
0
0
0
0
0
0
0
0
0
0
0
0
0
0
0
0
0
0
0
0
0
0
0
0
0
0
0
0
0
0
0
0
0
0
0
0
0
0
0
0
0
0
0
0
0
0
0
0
0
0
0
0
0
0
0
0
0
0
0
0
0
0
0
0
0
0
0
0
0
0
0
0
0
0
0
0
0
0
0
0
0
0
0
0
0
0
0
0
0
0
0
0
0
0
0
0
0
0
0
0
0
0
0
0
0
0
0
0
0
0
0
0
0
0
0
0
0
0
0
0
0
0
0
0
0
0
0
0
0
0
0
0
0
0
0
0
0
0
0
0
0
0
0
0
0
0
0
0
0
0
0
0
0
0
0
0
0
0
0
0
0
0
0
0
0
0
0
0
0
0
0
0
0
0
0
0
0
0
0
0
0
0
0
0
0
0
0
0
0
0
0
0
0
0
0
0
0
0
0
0
0
0
0
0
0
0
0
0
0
0
0
0
0
0
0
0
0
0
0
0
0
0
0
0
0
0
0
0
0
0
0
0
0
0
0
0
0
0
0
0
0
0
0
0
0
0
0
0
0
0
0
0
0
0
0
0
0
0
0
0
0
0
0
0
0
0
0
0
0
0
0
0
0
0
0
0
0
0
0
0
0
0
0
0
0
0
0
0
0
0
0
0
0
0
0
0
0
0
0
0
0
0
0
0
0
0
0
0
0
0
0
0
0
0
0
0
0
0
0
0
0
0
0
0
0
0
0
0
0
0
0
0
0
0
0
0
0
0
0
0
0
0
0
0
0
0
0
0
0
0
0
0
0
0
0
0
0
0
0
0
0
0
0
0
0
0
0
0
0
0
0
0
0
0
0
0
0
0
0
0
0
0
0
0
0
0
0
0
0
0
0
0
0
0
0
0
0
0
0
0
0
0
0
0
0
0
0
0
0
0
0
0
0
0
0
0
0
0
0
0
0
0
0
0
0
0
0
0
0
0
0
0
0
0
0
0
0
0
0
0
0
0
0
0
0
0
0
0
0
0
0
0
0
0
0
0
0
0
0
0
0
0
0
0
0
0
0
0
0
0
0
0
0
0
0
0
0
0
0
0
0
0
0
0
0
0
0
0
0
0
0
0
0
0
0
0
0
0
0
0
0
0
0
0
0
0
0
0
0
0
0
0
0
0
0
0
0
0
0
0
0
0
0
0
0
0
0
0
0
0
0
0
0
0
0
0
0
0
0
0
0
0
0
0
0
0
0
0
0
0
0
0
0
0
0
0
0
0
0
0
0
0
0
0
0
0
0
0
0
0
0
0
0
0
0
0
0
0
0
0
0
0
0
0
0
0
0
0
0
0
0
0
0
0
0
0
0
0
0
0
0
0
0
0
0
0
0
0
0
0
0
0
0
0
0
0
0
0
0
0
0
0
0
0
0
0
0
0
0
0
0
0
0
0
0
0
0
0
0
0
0
0
0
0
0
0
0
0
0
0
0
0
0
0
0
0
0
0
0
0
0
0
0
0
0
0
0
0
0
0
0
0
0
0
0
0
0
0
0
0
0
0
0
0
0
0
0
0
0
0
0
0
0
0
0
0
0
0
0
0
0
0
0
0
0
0
0
0
0
0
0
0
0
0
0
0
0
0
0
0
0
0
0
0
0
0
0
0
0
0
0
0
0
0
0
0
0
0
0
0
0
0
0
0
0
0
0
0
0
0
0
0
0
0
0
0
0
0
0
0
0
0
0
0
0
0
0
0
0
0
0
0
0
0
0
0
0
0
0
0
0
0
0
0
0
0
0
0
0
0
0
0
0
0
0
0
0
0
0
0
0
0
0
0
0
0
0
0
0
0
0
0
0
0
0
0
0
0
0
0
0
0
0
0
0
0
0
0
0
0
0
0
0
0
0
0
0
0
0
0
0
0
0
0
0
0
0
0
0
0
0
0
0
0
0
0
0
0
0
0
0
0
0
0
0
0
0
0
0
0
0
0
0
0
0
0
0
0
0
0
0
0
0
0
0
0
0
0
0
0
0
0
0
0
0
0
0
0
0
0
0
0
0
0
0
0
0
0
0
0
0
0
0
0
0
0
0
0
0
0
0
0
0
0
0
0
0
0
0
0
0
0
0
0
0
0
0
0
0
0
0
0
0
0
0
0
0
0
0
0
0
0
0
0
0
0
0
0
0
0
0
0
0
0
0
0
0
0
0
0
0
0
0
0
0
0
0
0
0
0
0
0
0
0
0
0
0
0
0
0
0
0
0
0
0
0
0
0
0
0
0
0
0
0
0
0
0
0
0
0
0
0
0
0
0
0
0
0
0
0
0
0
0
0
0
0
0
0
0
0
0
0
0
0
0
0
0
0
0
0
0
0
0
0
0
0
0
0
0
0
0
0
0
0
0
0
0
0
0
0
0
0
0
0
0
0
0
0
0
0
0
0
0
0
0
0
0
0
0
0
0
0
0
0
0
0
0
0
0
0
0
0
0
0
0
0
0
0
0
0
0
0
0
0
0
0
0
0
0
0
0
0
0
0
0
0
0
0
0
0
0
0
0
0
0
0
0
0
0
0
0
0
0
0
0
0
0
0
0
0
0
0
0
0
0
0
0
0
0
0
0
0
0
0
0
0
0
0
0
0
0
0
0
0
0
0
0
0
0
0
0
0
0
0
0
0
0
0
0
0
0
0
0
0
0
0
0
0
0
0
0
0
0
0
0
0
0
0
0
0
0
0
0
0
0
0
0
0
0
0
0
0
0
0
0
0
0
0
0
0
0
0
0
0
0
0
0
0
0
0
0
0
0
0
0
0
0
0
0
0
0
0
0
0
0
0
0
0
0
0
0
0
0
0
0
0
0
0
0
0
0
0
0
0
0
0
0
0
0
0
0
0
0
0
0
0
0
0
0
0
0
0
0
0
0
0
0
0
0
0
0
0
0
0
0
0
0
0
0
0
0
0
0
0
0
0
0
0
0
0
0
0
0
0
0
0
0
0
0
0
0
0
0
0
0
0
0
0
0
0
0
0
0
0
0
0
0
0
0
0
0
0
0
0
0
0
0
0
0
0
0
0
0
0
0
0
0
0
0
0
0
0
0
0
0
0
0
0
0
0
0
0
0
0
0
0
0
0
0
0
0
0
0
0
0
0
0
0
0
0
0
0
0
0
0
0
0
0
0
0
0
0
0
0
0
0
0
0
0
0
0
0
0
0
0
0
0
0
0
0
0
0
0
0
0
0
0
0
0
0
0
0
0
0
0
0
0
0
0
0
0
0
0
0
0
0
0
0
0
0
0
0
0
0
0
0
0
0
0
0
0
0
0
0
0
0
0
0
0
0
0
0
0
0
0
0
0
0
0
0
0
0
0
0
0
0
0
0
0
0
0
0
0
0
0
0
0
0
0
0
0
0
0
0
0
0
0
0
0
0
0
0
0
0
0
0
0
0
0
0
0
0
0
0
0
0
0
0
0
0
0
0
0
0
0
0
0
0
0
0
0
0
0
0
0
0
0
0
0
0
0
0
0
0
0
0
0
0
0
0
0
0
0
0
0
0
0
0
0
0
0
0
0
0
0
0
0
0
0
0
0
0
0
0
0
0
0
0
0
0
0
0
0
0
0
0
0
0
0
0
0
0
0
0
0
0
0
0
0
0
0
0
0
0
0
0
0
0
0
0
0
0
0
0
0
0
0
0
0
0
0
0
0
0
0
0
0
0
0
0
0
0
0
0
0
0
0
0
0
0
0
0
0
0
0
0
0
0
0
0
0
0
0
0
0
0
0
0
0
0
0
0
0
0
0
0
0
0
0
0
0
0
0
0
0
0
0
0
0
0
0
0
0
0
0
0
0
0
0
0
0
0
0
0
0
0
0
0
0
0
0
0
0
0
0
0
0
0
0
0
0
0
0
0
0
0
0
0
0
0
0
0
0
0
0
0
0
0
0
0
0
0
0
0
0
0
0
0
0
0
0
0
0
0
0
0
0
0
0
0
0
0
0
0
0
0
0
0
0
0
0
0
0
0
0
0
0
0
0
0
0
0
0
0
0
0
0
0
0
3.286577015138899062871034e-26
1.989113714536022774924721e-24
5.231947991772275544648564e-23
7.294058104011153305779568e-22
9.377834881422620464821307e-21
3.570605612433920562229203e-19
1.744223455476584907095116e-17
3.19072560812018960833413e-16
3.135245765683386443672261e-15
2.100175326461510326428707e-14
9.787377094968778923303262e-14
2.40219335208223645299021e-13
2.984532440910063990238005e-12
2.70440389468120190035926e-12
2.312237896645056258191889e-12
1.925449589961223611988254e-12
1.589744659166053503943398e-12
1.312315078969375197670179e-12
1.089089961001446538994714e-12
9.016848307804787870824305e-13
7.249344815633297796320835e-13
5.950555172157696225194338e-13
5.327860516922981760876974e-13
4.744496099248364442745582e-13
3.390706601980224094540825e-13
1.144927397413068479067684e-13
2.010449905550859378220642e-14
1.903320721500423737326109e-14
9.681059186162132732858767e-14
1.782965756507142703599287e-12
1.547891251332057100692022e-11
6.516766410855141757166141e-11
1.039797275115556746111644e-10
7.368522950798306390912907e-11
1.236332968168254357331836e-11
1.442052721395481476101709e-13
3.212857056031916440151076e-17
2.13289893350433837484204e-22
9.925116230340204779633559e-28
6.244845864711523603743143e-33
4.050419943068041359275299e-38
2.067282516286918857391723e-43
1.289041914925807281331533e-48
8.823646479847645304915744e-54
4.894466250947560850172207e-59
2.926066660976674378193174e-64
1.984221009226443944668075e-69
1.121299577154869891656251e-74
6.456748433566752650275386e-80
4.054078570798946909719433e-85
2.276370711455322247370456e-90
1.311182380672854517839486e-95
8.246807775498145494604217e-101
5.029737668918169503677704e-106
3.168376445409912713770314e-111
2.072159980052834313731244e-116
1.293860522018192376582397e-121
8.098418635125363567422632e-127
5.427035786836735679970021e-132
3.767529613226671925277197e-137
2.723792075255677498494675e-142
2.108568463577177288691232e-147
2.264270883052461285474607e-149
5.238220591527878615650104e-150
1.735532834297229776671416e-150
5.812086611530348852731005e-151
2.031593802538377557586689e-151
7.429546825147040005273447e-152
2.850464187925303465219589e-152
1.148969962374795299081569e-152
4.833206928428314591071761e-153
2.097697336130665166866989e-153
9.278622158702995132100099e-154
3.096316581369691822022655e-154
1.015726543883734033338673e-154
3.219667482540547884539689e-155
9.75663350302728802251522e-156
2.809311031481526629716266e-156
7.662788108290418056706673e-157
1.977679933975743872729986e-157
4.829303433263333646433401e-158
1.116395859654075064517785e-158
2.445356300386873880067634e-159
5.080465013473093141874329e-160
1.002229591459658874934789e-160
1.879279782307799584742297e-161
3.352846779032667087634653e-162
5.696976384325830084606509e-163
9.227071671743929899988819e-164
1.425678546343506293255378e-164
2.102987300772703594825562e-165
2.963457319818092550987679e-166
3.99180447909162001176567e-167
5.14260568813747910617431e-168
6.339426783047499507538945e-169
7.480916898174087915820634e-170
8.45395690689583320365809e-171
9.151787145109679062593489e-172
9.493180543577839140758392e-173
9.437924849239902911575415e-174
8.994553735540986919969661e-175
8.218288495657955824433665e-176
7.19985082277631126988077e-177
6.048244825798109886548297e-178
4.871966455140830305568709e-179
3.763012192084000110126124e-180
2.78671633024530273064091e-181
1.978458957590116834568245e-182
1.34639215505136358998334e-183
8.780937548605384583678286e-185
5.486944423714828712896588e-186
3.284102020479303960941412e-187
1.882153246888505160267024e-188
1.032477124140539309878367e-189
5.418834601978612457023314e-191
2.719700852165622130957873e-192
1.304642521654722541113386e-193
5.978007957260215055071572e-195
2.614735257336776831011302e-196
1.090905660224977703628989e-197
4.337952423236492512425156e-199
1.642614267715543801312049e-200
5.91720783698038941377148e-202
2.025649072650320903290063e-203
6.582150726646938969496534e-205
2.027529774424637854221679e-206
5.912155849809611286378531e-208
1.62938726822981901102722e-209
4.236941772933600166749559e-211
1.037529165635447476521746e-212
2.387517083643307674979174e-214
5.150685660403239796688323e-216
1.038984107874490397748195e-217
1.953843011633218329726234e-219
3.413913440112036809637603e-221
5.52134083632409208716431e-223
8.229520981721539979804664e-225
1.124761646365375609331665e-226
1.401394826626509810131178e-228
1.580809808676915295194985e-230
1.601182868981117059245899e-232
1.4417911610179534921139e-234
1.139952518753244871608174e-236
7.790537682455629513419318e-239
4.5081315907081348032933e-241
2.147536720751475667396903e-243
8.08471329455286700425667e-246
2.254893654151449171878737e-248
4.141423770378762037841594e-251
3.7563304467967322276795e-254
0
0
0
0
0
0
0
0
0
0
0
0
0
0
0
0
0
0
0
0
0
0
0
0
0
0
0
0
0
0
0
0
0
0
0
0
0
0
0
0
0
0
0
0
0
0
0
0
0
0
0
0
0
0
0
0
0
0
0
0
0
0
0
0
0
0
0
0
0
0
0
0
0
0
0
0
0
0
0
0
0
0
0
0
0
0
0
0
0
0
0
0
0
0
0
0
0
0
0
0
0
0
0
0
0
0
0
0
0
0
0
0
0
0
0
0
0
0
0
0
0
0
0
0
0
0
0
0
0
0
0
0
0
0
0
0
0
0
0
0
0
0
0
0
0
0
0
0
0
0
0
0
0
0
0
0
0
0
0
0
0
0
0
0
0
0
0
0
0
0
0
0
0
0
0
0
0
0
0
0
0
0
0
0
0
0
0
0
0
0
0
0
0
0
0
0
0
0
0
0
0
0
0
0
0
0
0
0
0
0
0
0
0
0
0
0
0
0
0
0
0
0
0
0
0
0
0
0
0
0
0
0
0
0
0
0
0
0
0
0
0
0
0
0
0
0
0
0
0
8.891359950619087587786789e-27
2.155468790956094191532795e-24
1.130604497795683338510886e-22
3.122792314828697047047172e-21
5.827867449159995711627258e-20
6.74445401637358860206562e-19
7.87721247321189298871194e-18
1.523608545846680057948263e-16
2.860439210671562156741556e-15
1.075430061108694431100809e-13
1.561881952065394783761087e-12
8.466161567088860015976736e-12
2.131848747818211264999956e-11
3.044326061011155607211173e-10
2.592220917485911740486657e-10
2.039195164061520239355598e-10
1.563417281581146586050708e-10
1.188274720444307200911145e-10
8.990860630663779121568147e-11
6.768195977319096608863727e-11
5.029044884999592284969128e-11
3.686949298065299102728991e-11
2.858730023610282177810486e-11
2.278932512119607768187514e-11
1.379229596981509601584515e-11
4.718628695822816379266644e-12
3.075666172035891749944813e-12
5.029245253809819303318162e-12
4.06229477241634414986924e-11
6.466426920395823814082438e-10
3.478938822334826155925676e-09
4.07144941034572064926778e-09
1.750308314271790273773424e-09
2.173226977958315061503607e-10
3.178752062004569885883607e-11
2.184040911705542471937559e-12
1.348509944752727906567261e-14
1.592357159894598883968513e-18
9.855261832138942842782279e-24
6.210740579780020915258643e-29
5.009161835312342165334585e-34
3.0488548947682833164192e-39
1.992178958001690463890868e-44
1.512129988779784961470761e-49
9.414557448389318393327585e-55
6.007417455629644898355911e-60
4.269143832696096367730358e-65
2.638460418124967731844895e-70
1.609835883628697530548931e-75
1.052306245736083771938432e-80
6.350572089198874584562756e-86
3.855708361890029087204422e-91
2.538219702015230717146043e-96
1.643099783678090810674284e-101
1.080313203955816104431057e-106
7.331679092556560190093376e-112
4.803115379080192757919799e-117
3.151371997692683156590946e-122
2.199525933416101130988963e-127
1.594262032429343626135645e-132
1.202614488591211789512817e-137
9.59043183266752088535439e-143
8.242248714097423103963896e-148
2.699764690984768617249585e-149
9.30501854121745276312149e-150
3.682683658986313624970662e-150
1.489653448919167518241207e-150
6.249075484539198134891689e-151
2.721408307166535492598483e-151
1.230705421303967780038216e-151
5.745248836996458367888008e-152
2.740325124994029032025916e-152
1.32080568295525252775453e-152
6.369540294075289196267927e-153
2.292983204451303375655418e-153
7.934794225319204826924578e-154
2.611366656141066630321956e-154
8.128598684251059409888672e-155
2.387717887725179565207803e-155
6.615641826323374263425498e-156
1.729896513116114942090408e-156
4.273525063010674519823607e-157
9.98683944332683703702e-158
2.210720669743450291026306e-158
4.64179191952055945079481e-159
9.256355492256359582086642e-160
1.75516909094427320584991e-160
3.168154591783421797529705e-161
5.449383820623674003239479e-162
8.940245939418547731546458e-163
1.400180178725296658989271e-163
2.095019606894695925232962e-164
2.996865868947410169555282e-165
4.101067558886917485650208e-166
5.371853693839419123868342e-167
6.738602796821562981731699e-168
8.098971173263983321762767e-169
9.329889176025380329227809e-170
1.030527788257779833318617e-170
1.091712141824165252937141e-171
1.109506801963143931946254e-172
1.081966215543993104065697e-173
1.012578729975678798344211e-174
9.095492387938542877705024e-176
7.842215494897224876148177e-177
6.490549783987064868366868e-178
5.156461127029580753807568e-179
3.932144131707051748131044e-180
2.877907721148331668718462e-181
2.021337148296987187034108e-182
1.362203415082245792768465e-183
8.806334621005000615058608e-185
5.459948281741656812574846e-186
3.245585027913454061927822e-187
1.849097330094745263973588e-188
1.009298156273017614505299e-189
5.275713303472546631257999e-191
2.639558609236901500329623e-192
1.263375111703730652154884e-193
5.781243046590403192384864e-195
2.527597253114513234591979e-196
1.055049667322771335631081e-197
4.201123717171514635867552e-199
1.594412058239746761410295e-200
5.761770661898694568646072e-202
1.980471690806367358740422e-203
6.467413587932181897884237e-205
2.003937951780141413344581e-206
5.883239028855556223283232e-208
1.634000816191718683952332e-209
4.285946619667410211857579e-211
1.059683122589042826697638e-212
2.464483229140607704088906e-214
5.378713895372658028935529e-216
1.098742273480412245294811e-217
2.094594418272408081162836e-219
3.714047527464719932511457e-221
6.102367215195976091088499e-223
9.250720823471186174113756e-225
1.287398466639676089213844e-226
1.635257971946827722992912e-228
1.882868513834816659651563e-230
1.949211517435346132649152e-232
1.796326774212409593509862e-234
1.455623571855966211811742e-236
1.021066099852199304938166e-238
6.074158253545165873918038e-241
2.979551202465294684640211e-243
1.157063305931307842273271e-245
3.335126464103167232893493e-248
6.343054059107164780483063e-251
5.970486024546400126630709e-254
0
0
0
0
0
0
0
0
0
0
0
0
0
0
0
0
0
0
0
0
0
0
0
0
0
0
0
0
0
0
0
0
0
0
0
0
0
0
0
0
0
0
0
0
0
0
0
0
0
0
0
0
0
0
0
0
0
0
0
0
0
0
0
0
0
0
0
0
0
0
0
0
0
0
0
0
0
0
0
0
0
0
0
0
0
0
0
0
0
0
0
0
0
0
0
0
0
0
0
0
0
0
0
0
0
0
0
0
0
0
0
0
0
0
0
0
0
0
0
0
0
0
0
0
0
0
0
0
0
0
0
0
0
0
0
0
0
0
0
0
0
0
0
0
0
0
0
0
0
0
0
0
0
0
0
0
0
0
0
0
0
0
0
0
0
0
0
0
0
0
0
0
0
0
0
0
0
0
0
0
0
0
0
0
0
0
0
0
0
0
0
0
0
0
0
0
0
0
0
0
0
0
0
0
0
0
0
0
0
0
0
0
0
0
0
0
0
0
0
0
0
0
0
0
0
0
0
0
0
0
0
0
0
0
0
0
0
0
0
0
0
0
0
0
0
0
0
1.422558885238074605048246e-27
3.618705693412818761029283e-25
4.589884514666636024238092e-23
2.344832616927174829530496e-21
6.589266658590808876904705e-20
1.150979224044739799258273e-18
1.549421126410909761848328e-17
1.93184448298915532392181e-16
1.856221601271101165334237e-15
1.650570418951383371060261e-14
3.108997698004096046757598e-13
4.720694400433799148077677e-12
3.979617810551400684788248e-11
5.611327626583454854534003e-10
1.651070977475867448350599e-08
1.43308266187240226875131e-08
1.141867865322846989599381e-08
8.773100013215850408818508e-09
6.610973250881321417791812e-09
4.906660813981717196941828e-09
3.576340965974600054112289e-09
2.565645253397292671532896e-09
1.853417606946611350234144e-09
1.291567217921136033551435e-09
6.667307002127867822276563e-10
2.889201150016822439628139e-10
3.173450466846731526867212e-10
1.548354716006736860624832e-09
1.553490599110754995923165e-08
6.566408387429770190101572e-08
8.276262272564653819972494e-08
3.042585470690729786768128e-08
3.323081090815661462575042e-09
4.882064007580429985140481e-10
5.437045798344680549935155e-11
2.405267530485490332334354e-12
3.078535914168383930732367e-14
3.902021927191154690756389e-17
9.735858494333229591250437e-22
1.135034704278284015729679e-26
1.299797390220490413656995e-31
9.378749046996800796475078e-37
8.711000698802255049959462e-42
8.67135189591360954060281e-47
5.638942953943531656589495e-52
4.519213063728919533210535e-57
3.963002572999836862100796e-62
2.467476570185549255347048e-67
1.745333091194423023332784e-72
1.340879195990056119202534e-77
8.443822259760276153565345e-83
5.902131767197371601432012e-88
4.596930268612774342218216e-93
3.266309738430102466737979e-98
2.421186744853031451943481e-103
1.829106104760209521894596e-108
1.270046751607989076266241e-113
9.263755101147179604232872e-119
7.483925674641844628932685e-124
6.142981622238065756402081e-129
5.271153407820400313133002e-134
4.781984688339603906520407e-139
4.322462399069871908728261e-144
9.216412432224384474797438e-149
2.467498262526012808216209e-149
1.12781467202956688761747e-149
5.31319103977810716020605e-150
2.583064327609367239256031e-150
1.284984189810660656194687e-150
6.539229473133202371286864e-151
3.390112813823622673854137e-151
1.775405242154193567186375e-151
9.307233176604614087292986e-152
4.844176883753734685415532e-152
2.48622663419916986671117e-152
9.415555643871987763126654e-153
3.373176699297995939216861e-153
1.137494320835532881154539e-153
3.604722177422964497408259e-154
1.073735734551681924135218e-154
3.009648030466074700053709e-155
7.95052540341033275356783e-156
1.982751862785681634823317e-156
4.675885506722977277757169e-157
1.044436815664546822003453e-157
2.212984603123173485075718e-158
4.45407752477702428894299e-159
8.526585047368681100943156e-160
1.5543062304857891035752e-160
2.700861735272982342238775e-161
4.478059187589668152784168e-162
7.090498821342428197887603e-163
1.073011457102976484576751e-163
1.553029818809224157914829e-164
2.151191062933734924389747e-165
2.853308317519286859511458e-166
3.625839668400764398203112e-167
4.416242929137863434291213e-168
5.157654610680792784620218e-169
5.77769366336153177371274e-170
6.209926302597911042486568e-171
6.405521608827710549168271e-172
6.342284115867619319469888e-173
6.028764797055537917801206e-174
5.50240626176176267652901e-175
4.822266472089861122252072e-176
4.058254737896168722025281e-177
3.279557427390744283613399e-178
2.54483973973678551698895e-179
1.896005133344088954750376e-180
1.356126486350476457511876e-181
9.310504951232794362301642e-183
6.134399834798797480109986e-184
3.877863872715070715117206e-185
2.351323608731628924834165e-186
1.367069687503136981260154e-187
7.618455658879479957732045e-189
4.067810000266254636025234e-190
2.080031587373914360631977e-191
1.018053187447395538125585e-192
4.766660474713534379014961e-194
2.133672730300505671589235e-195
9.124535151843541058510735e-197
3.725061090560023904424718e-198
1.450556320855360159455738e-199
5.382932647089431866906049e-201
1.90175124775066685116511e-202
6.389475367745862164126399e-204
2.039081630541000396692567e-205
6.172955968397670782567477e-207
1.770176271112524540483205e-208
4.800848197459486363088425e-210
1.229251687148261431820763e-211
2.965847912560565505087904e-213
6.728456475432470656243049e-215
1.431890443034592024338913e-216
2.850892051342457503558754e-218
5.29464343703532784225918e-220
9.141560817472147252093144e-222
1.461764016503248198486126e-223
2.155339262698089123995311e-225
2.915774948900397295804027e-227
3.597925845289915974524889e-229
4.021780503728039139268058e-231
4.03905837188640258250302e-233
3.608291772810351498232629e-235
2.832134773102350250606088e-237
1.922651184929956196873748e-239
1.10592674008023755280568e-241
5.240508897970322342997402e-244
1.963929334256997258161535e-246
5.457122790109318390140313e-249
9.993996444666532446632326e-252
9.047184667531516549589694e-255
0
0
0
0
0
0
0
0
0
0
0
0
0
0
0
0
0
0
0
0
0
0
0
0
0
0
0
0
0
0
0
0
0
0
0
0
0
0
0
0
0
0
0
0
0
0
0
0
0
0
0
0
0
0
0
0
0
0
0
0
0
0
0
0
0
0
0
0
0
0
0
0
0
0
0
0
0
0
0
0
0
0
0
0
0
0
0
0
0
0
0
0
0
0
0
0
0
0
0
0
0
0
0
0
0
0
0
0
0
0
0
0
0
0
0
0
0
0
0
0
0
0
0
0
0
0
0
0
0
0
0
0
0
0
0
0
0
0
0
0
0
0
0
0
0
0
0
0
0
0
0
0
0
0
0
0
0
0
0
0
0
0
0
0
0
0
0
0
0
0
0
0
0
0
0
0
0
0
0
0
0
0
0
0
0
0
0
0
0
0
0
0
0
0
0
0
0
0
0
0
0
0
0
0
0
0
0
0
0
0
0
0
0
0
0
0
0
0
0
0
0
0
0
0
0
0
0
0
0
0
0
0
0
0
0
0
0
0
0
0
0
0
0
0
0
0
5.898519787231536266086376e-26
8.351228664390550011001383e-24
6.398160581179728089043584e-22
2.791881243339241058371339e-20
6.762221407875155654443511e-19
1.12221913436186706597539e-17
1.73090967492466444093277e-16
2.595243334798476147102865e-15
3.183833510332194994008393e-14
2.416766725506105528353471e-13
1.245716482631241429408461e-12
5.604891334505686482751406e-12
6.243843289894150911700946e-11
9.846635131676679638674111e-09
5.35775272406663693310297e-07
4.74543395324854333820145e-07
3.879921746336018404719792e-07
3.057432546833090308099521e-07
2.360746352385477191750422e-07
1.808633303208386126380617e-07
1.382320038938910490162315e-07
1.043079607839500466058593e-07
7.470778879286264414716709e-08
4.384213700859844694329424e-08
1.737333603912671899712192e-08
1.342465857961300864275798e-08
3.831882167409393897537274e-08
3.78028880251648583010228e-07
9.404614820325664791309883e-07
6.11793932232348149015573e-07
1.197012989040260521091255e-07
7.434315875963111983673971e-09
3.52109208408984042327862e-10
2.901078628803142688729357e-11
1.645353535211998507639314e-12
1.375266688350990333471463e-14
1.348531450549231313288668e-17
1.315707683879638274411582e-21
1.923971592839511144894882e-26
3.49020928876242694294492e-31
3.13926478095704526665868e-36
4.919203324623432361969048e-41
7.772856213086808546319161e-46
5.115335161204684699225231e-51
5.840874116304215403671242e-56
7.242551588619949432208392e-61
4.437318670376524439226119e-66
3.890646444050474765829718e-71
3.887102125602089598579383e-76
2.597604774277498633455145e-81
2.256256410530513976806761e-86
2.311581492215473669597411e-91
1.903063703302603643735652e-96
1.691243633723826138032839e-101
1.51700848610417508439771e-106
1.151472971717531463960094e-111
9.983991988482752909867324e-117
1.028580420722792724236058e-121
1.043798673585643235750208e-126
1.111997709619490965030195e-131
1.244309373608496082257971e-136
1.328019286518652580285568e-141
1.436603125965875837460206e-146
5.328733542323335211221159e-149
2.372134003349592604844124e-149
1.294003834731173750501866e-149
7.256076126014727230751622e-150
4.107642804203541259241041e-150
2.341043400875729937789223e-150
1.339379559439344434122936e-150
7.65351190472884092509773e-151
4.339590045463756521460193e-151
2.42635094425075936692677e-151
1.330576507823105950591245e-151
7.125702836998847568711374e-152
2.782443788053500176510081e-152
1.017497366584040964355486e-152
3.48089106918378476256318e-153
1.1149373216255914913495e-153
3.34926627094189816415442e-154
9.455154942920309193449413e-155
2.513695872506689740368448e-155
6.306017599228533761766132e-156
1.495589489157029618799585e-156
3.359196360404545056687438e-157
7.156636666745007801686681e-158
1.448287356191255822058926e-158
2.787632275583941583986034e-159
5.109283500412649803629518e-160
8.926636194528746824313198e-161
1.488105377165143854400176e-161
2.369034560106533777938486e-162
3.604437637324942828632286e-163
5.244866635628041828731135e-164
7.303536920042987389318967e-165
9.738138355679307739285226e-166
1.243878172512318180985643e-166
1.522752198285272737528716e-167
1.787298212477608831080523e-168
2.011991477311929059836031e-169
2.172904925195161956650299e-170
2.251879538889329848610536e-171
2.239880714163592766638926e-172
2.138686868945498384855242e-173
1.9604770468702002148561e-174
1.725444922065267914798222e-175
1.458078712202673869204908e-176
1.183043136920216317801115e-177
9.216006070665279869408994e-179
6.892455190615164981872403e-180
4.948165749064581008362088e-181
3.409471905141710033090974e-182
2.254339253015719468058824e-183
1.430013814637123094531791e-184
8.700253168927494698761041e-186
5.075255807163831787531432e-187
2.837678341559038541619283e-188
1.520101701222467717443417e-189
7.798135027575836683727808e-191
3.829129357291241460771294e-192
1.798704986828866146034731e-193
8.07802625278983346407134e-195
3.466126905803591676465723e-196
1.419899672435659699735223e-197
5.548739877638721193713378e-199
2.06666862511565182940124e-200
7.329377615297285570675401e-202
2.472426227699125729897542e-203
7.923844800071089793629285e-205
2.409643255864646335360372e-206
6.943323071092341310860292e-208
1.892835268366872852078406e-209
4.873642548276306870355668e-211
1.182978623911534212832579e-212
2.70134948838360522750219e-214
5.789773075036479190898568e-216
1.161708269555300256886322e-217
2.175839396295175830866343e-219
3.79163755106101451373363e-221
6.124605022594504248640369e-223
9.131171905249932034311467e-225
1.250346988531828076891811e-226
1.563479410504042437033851e-228
1.773224651659431894286743e-230
1.809336861350930755447547e-232
1.644643773371066694067178e-234
1.31553541724556113173554e-236
9.116908658761306729323889e-239
5.363229659428279587156981e-241
2.604216946818685933620157e-243
1.00217154871325244404447e-245
2.865901729442956426545185e-248
5.414382117754742614492634e-251
5.069091813438822841698494e-254
0
0
0
0
0
0
0
0
0
0
0
0
0
0
0
0
0
0
0
0
0
0
0
0
0
0
0
0
0
0
0
0
0
0
0
0
0
0
0
0
0
0
0
0
0
0
0
0
0
0
0
0
0
0
0
0
0
0
0
0
0
0
0
0
0
0
0
0
0
0
0
0
0
0
0
0
0
0
0
0
0
0
0
0
0
0
0
0
0
0
0
0
0
0
0
0
0
0
0
0
0
0
0
0
0
0
0
0
0
0
0
0
0
0
0
0
0
0
0
0
0
0
0
0
0
0
0
0
0
0
0
0
0
0
0
0
0
0
0
0
0
0
0
0
0
0
0
0
0
0
0
0
0
0
0
0
0
0
0
0
0
0
0
0
0
0
0
0
0
0
0
0
0
0
0
0
0
0
0
0
0
0
0
0
0
0
0
0
0
0
0
0
0
0
0
0
0
0
0
0
0
0
0
0
0
0
0
0
0
0
0
0
0
0
0
0
0
0
0
0
0
0
0
0
0
0
0
0
0
0
0
0
0
0
0
0
0
0
0
0
0
0
0
0
0
0
1.098777690662011264415307e-24
1.235784929448825702305725e-22
6.902217359764147937682364e-21
2.310225709110090516058561e-19
5.186734618747816406925106e-18
9.160454308766092808359353e-17
1.441463078408149685990219e-15
2.019786560759600572970779e-14
2.327013279117400924223248e-13
1.980003843912378666284468e-12
1.200026185105666008277803e-11
2.074268438252205770102738e-11
1.559830907708887753942247e-10
4.835723627613867329979271e-08
1.336594302324123340313528e-05
1.248419712647378935935043e-05
1.071843868326465584565887e-05
9.046631341701946366139035e-06
7.811368874541223386110192e-06
6.484858515591115410263163e-06
4.554783109999566244796478e-06
2.620982417382989799380317e-06
1.54901039545934070172054e-06
9.63890179007983336625996e-07
7.39599635586011093677189e-07
8.717206533468081239309877e-07
2.802729864543448491301771e-06
3.281605996785342898268423e-06
1.190641667005325228179059e-06
2.334697640751774328575475e-07
1.811409582019412576999937e-08
2.632616993753053978585022e-10
4.057270365497334130376488e-12
1.900066680101717459682153e-13
2.80138225864392341528984e-15
2.243686105441582338946433e-18
1.42149129106673977510321e-22
7.798580300093140090306592e-27
1.621113009007865199251461e-31
2.18980646168412923072298e-36
3.753683005157011269687262e-41
6.111566165404441563416599e-46
4.89639481950533311452938e-51
6.159420795843011443126419e-56
7.926732103175595831356721e-61
5.527706769438546911482338e-66
5.253544961926205777845326e-71
5.476788730957905218686606e-76
4.043591910750604083277508e-81
3.755337865121854816934107e-86
3.990136401019658288265025e-91
3.52098651551994862218443e-96
3.285272991802153974212635e-101
3.167585304000201071406354e-106
2.594201105844310274947324e-111
2.744843586091407632914264e-116
3.811521814976583203502868e-121
5.056333688135810880500297e-126
7.238927755123666611728961e-131
1.064294454919684498539775e-135
1.393476792050791835480895e-140
1.840536959577927085110127e-145
7.219295455981863415622961e-149
4.075443200206597349184053e-149
2.552692026541901768934658e-149
1.628147290990534687557666e-149
1.031509972900505938798046e-149
6.485761930546380288300966e-150
4.040020388166497113809696e-150
2.490253696846453267831539e-150
1.513169244389829135403614e-150
9.023218302418256974744209e-151
5.258027349523235290471351e-151
2.983355402314288375799041e-151
1.643455663527479088603823e-151
6.5210726013852039341324e-152
2.409836625448572288182315e-152
8.304525636075546887642737e-153
2.674305186179000414191697e-153
8.067443456501745655328039e-154
2.285366918729214292574283e-154
6.093697976789124854836402e-155
1.532645489793824283134373e-155
3.643219489199223402715703e-156
8.199325765752759702125205e-157
1.749893989799795372912908e-157
3.546579944586120037092653e-158
6.834935452447506836962644e-159
1.253985935302475233767559e-159
2.192510097426967871749286e-160
3.656733700986631194698475e-161
5.822630178473135080124448e-162
8.858363539130526963258028e-163
1.288536249363280469929535e-163
1.793155712444173204707057e-164
2.388681961195499245819713e-165
3.047416578048708974764138e-166
3.725014630422401054175817e-167
4.364285387084069268646816e-168
4.902660738035624413844016e-169
5.282116403537255432562229e-170
5.459410304997868561680391e-171
5.414152786172263954402464e-172
5.152636166973134560429884e-173
4.706436691511788552382158e-174
4.12620810015898921867822e-175
3.472335814471811865933847e-176
2.804806287057924668431441e-177
2.174587673799961963832753e-178
1.618116122752911070429598e-179
1.155447918291293310582668e-180
7.916467243575152632180267e-182
5.203172033009997215868019e-183
3.279884827507922403356381e-184
1.982360477302854379060651e-185
1.148422630522670495984148e-186
6.374675903978048368032332e-188
3.389017333480948470535447e-189
1.724843555780098702806281e-190
8.399714046354851001896003e-192
3.911768548015310511995429e-193
1.741026775156240709665098e-194
7.400553738590077806212927e-196
3.00208677903289858250754e-197