/*--------------------------------*- C++ -*----------------------------------*\
| =========                 |                                                 |
| \\      /  F ield         | OpenFOAM: The Open Source CFD Toolbox           |
|  \\    /   O peration     | Version:  v2012                                 |
|   \\  /    A nd           | Website:  www.openfoam.com                      |
|    \\/     M anipulation  |                                                 |
\*---------------------------------------------------------------------------*/
FoamFile
{
    version     2.0;
    format      ascii;
    class       volScalarField;
    location    "2.4";
    object      alpha.water;
}
// * * * * * * * * * * * * * * * * * * * * * * * * * * * * * * * * * * * * * //

dimensions      [0 0 0 0 0 0 0];


internalField   nonuniform List<scalar> 
96000
(
0
0
0
0
0
0
0
0
0
0
0
0
0
0
0
0
0
0
0
0
0
0
0
0
0
0
0
0
0
0
0
0
0
0
0
0
0
0
0
0
0
0
0
0
0
0
0
0
0
0
0
0
0
0
0
0
0
0
0
0
0
0
0
0
0
0
0
0
0
0
0
0
0
0
0
0
0
0
0
0
0
0
0
0
0
0
0
0
0
0
0
0
0
0
0
0
0
0
0
0
0
0
0
0
0
0
0
0
0
0
0
0
0
0
0
0
0
0
0
0
0
0
0
0
0
0
0
0
0
0
0
0
0
0
0
0
0
0
0
0
0
0
0
0
0
0
0
0
0
0
0
0
0
0
0
0
0
0
0
0
0
0
0
0
0
0
0
0
0
0
0
0
0
0
0
0
0
0
0
0
0
0
0
0
0
0
0
0
0
0
0
0
0
0
0
0
0
0
0
0
0
0
0
0
0
0
0
0
0
0
0
0
0
0
0
0
0
0
0
0
0
0
0
0
0
0
0
0
0
0
0
0
0
0
0
0
0
0
0
0
0
0
0
0
0
0
0
0
0
0
0
0
0
0
0
0
0
0
0
0
0
0
0
0
0
0
0
0
0
0
0
0
0
0
0
0
0
0
0
0
0
0
0
0
0
0
0
0
0
0
0
0
0
0
0
0
0
0
0
0
0
0
0
0
0
0
0
0
0
0
0
0
0
0
0
0
0
0
0
0
0
0
0
0
0
0
0
0
0
0
0
0
0
0
0
0
0
0
0
0
0
0
0
0
0
0
0
0
0
0
0
0
0
0
0
0
0
0
0
0
0
0
0
0
0
0
0
0
0
0
0
0
0
0
0
0
0
0
0
0
0
0
0
0
0
0
0
0
0
0
0
0
0
0
0
0
0
0
0
0
0
0
0
0
0
0
0
0
0
0
0
0
0
0
0
0
0
0
0
0
0
0
0
0
0
0
0
0
0
0
0
0
0
0
0
0
0
0
0
0
0
0
0
0
0
0
0
0
0
0
0
0
0
0
0
0
0
0
0
0
0
0
0
0
0
0
0
0
0
0
0
0
0
0
0
0
0
0
0
0
0
0
0
0
0
0
0
0
0
0
0
0
0
0
0
0
0
0
0
0
0
0
0
0
0
0
0
0
0
0
0
0
0
0
0
0
0
0
0
0
0
0
0
0
0
0
0
0
0
0
0
0
0
0
0
0
0
0
0
0
0
0
0
0
0
0
0
0
0
0
0
0
0
0
0
0
0
0
0
0
0
0
0
0
0
0
0
0
0
0
0
0
0
0
0
0
0
0
0
0
0
0
0
0
0
0
0
0
0
0
0
0
0
0
0
0
0
0
0
0
0
0
0
0
0
0
0
0
0
0
0
0
0
0
0
0
0
0
0
0
0
0
0
0
0
0
0
0
0
0
0
0
0
0
0
0
0
0
0
0
0
0
0
0
0
0
0
0
0
0
0
0
0
0
0
0
0
0
0
0
0
0
0
0
0
0
0
0
0
0
0
0
0
0
0
0
0
0
0
0
0
0
0
0
0
0
0
0
0
0
0
0
0
0
0
0
0
0
0
0
0
0
0
0
0
0
0
0
0
0
0
0
0
0
0
0
0
0
0
0
0
0
0
0
0
0
0
0
0
0
0
0
0
0
0
0
0
0
0
0
0
0
0
0
0
0
0
0
0
0
0
0
0
0
0
0
0
0
0
0
0
0
0
0
0
0
0
0
0
0
0
0
0
0
0
0
0
0
0
0
0
0
0
0
0
0
0
0
0
0
0
0
0
0
0
0
0
0
0
0
0
0
0
0
0
0
0
0
0
0
0
0
0
0
0
0
0
0
0
0
0
0
0
0
0
0
0
0
0
0
0
0
0
0
0
0
0
0
0
0
0
0
0
0
0
0
0
0
0
0
0
0
0
0
0
0
0
0
0
0
0
0
0
0
0
0
0
0
0
0
0
0
0
0
0
0
0
0
0
0
0
0
0
0
0
0
0
0
0
0
0
0
0
0
0
0
0
0
0
0
0
0
0
0
0
0
0
0
0
0
0
0
0
0
0
0
0
0
0
0
0
0
0
0
0
0
0
0
0
0
0
0
0
0
0
0
0
0
0
0
0
0
0
0
0
0
0
0
0
0
0
0
0
0
0
0
0
0
0
0
0
0
0
0
0
0
0
0
0
0
0
0
0
0
0
0
0
0
0
0
0
0
0
0
0
0
0
0
0
0
0
0
0
0
0
0
0
0
0
0
0
0
0
0
0
0
0
0
0
0
0
0
0
0
0
0
0
0
0
0
0
0
0
0
0
0
0
0
0
0
0
0
0
0
0
0
0
0
0
0
0
0
0
0
0
0
0
0
0
0
0
0
0
0
0
0
0
0
0
0
0
0
0
0
0
0
0
0
0
0
0
0
0
0
0
0
0
0
0
0
0
0
0
0
0
0
0
0
0
0
0
0
0
0
0
0
0
0
0
0
0
0
0
0
0
0
0
0
0
0
0
0
0
0
0
0
0
0
0
0
0
0
0
0
0
0
0
0
0
0
0
0
0
0
0
0
0
0
0
0
0
0
0
0
0
0
0
0
0
0
0
0
0
0
0
0
0
0
0
0
0
0
0
0
0
0
0
0
0
0
0
0
0
0
0
0
0
0
0
0
0
0
0
0
0
0
0
0
0
0
0
0
0
0
0
0
0
0
0
0
0
0
0
0
0
0
0
0
0
0
0
0
0
0
0
0
0
0
0
0
0
0
0
0
0
0
0
0
0
0
0
0
0
0
0
0
0
0
0
0
0
0
0
0
0
0
0
0
0
0
0
0
0
0
0
0
0
0
0
0
0
0
0
0
0
0
0
0
0
0
0
0
0
0
0
0
0
0
0
0
0
0
0
0
0
0
0
0
0
0
0
0
0
0
0
0
0
0
0
0
0
0
0
0
0
0
0
0
0
0
0
0
0
0
0
0
0
0
0
0
0
0
0
0
0
0
0
0
0
0
0
0
0
0
0
0
0
0
0
0
0
0
0
0
0
0
0
0
0
0
0
0
0
0
0
0
0
0
0
0
0
0
0
0
0
0
0
0
0
0
0
0
0
0
0
0
0
0
0
0
0
0
0
0
0
0
0
0
0
0
0
0
0
0
0
0
0
0
0
0
0
0
0
0
0
0
0
0
0
0
0
0
0
0
0
0
0
0
0
0
0
0
0
0
0
0
0
0
0
0
0
0
0
0
0
0
0
0
0
0
0
0
0
0
0
0
0
0
0
0
0
0
0
0
0
0
0
0
0
0
0
0
0
0
0
0
0
0
0
0
0
0
0
0
0
0
0
0
0
0
0
0
0
0
0
0
0
0
0
0
0
0
0
0
0
0
0
0
0
0
0
0
0
0
0
0
0
0
0
0
0
0
0
0
0
0
0
0
0
0
0
0
0
0
0
0
0
0
0
0
0
0
0
0
0
0
0
0
0
0
0
0
0
0
0
0
0
0
0
0
0
0
0
0
0
0
0
0
0
0
0
0
0
0
0
0
0
0
0
0
0
0
0
0
0
0
0
0
0
0
0
0
0
0
0
0
0
0
0
0
0
0
0
0
0
0
0
0
0
0
0
0
0
0
0
0
0
0
0
0
0
0
0
0
0
0
0
0
0
0
0
0
0
0
0
0
0
0
0
0
0
0
0
0
0
0
0
0
0
0
0
0
0
0
0
0
0
0
0
0
0
0
0
0
0
0
0
0
0
0
0
0
0
0
0
0
0
0
0
0
0
0
0
0
0
0
0
0
0
0
0
0
0
0
0
0
0
0
0
0
0
0
0
0
0
0
0
0
0
0
0
0
0
0
0
0
0
0
0
0
0
0
0
0
0
0
0
0
0
0
0
0
0
0
0
0
0
0
0
0
0
0
0
0
0
0
0
0
0
0
0
0
0
0
0
0
0
0
0
0
0
0
0
0
0
0
0
0
0
0
0
0
0
0
0
0
0
0
0
0
0
0
0
0
0
0
0
0
0
0
0
0
0
0
0
0
0
0
0
0
0
0
0
0
0
0
0
0
0
0
0
0
0
0
0
0
0
0
0
0
0
0
0
0
0
0
0
0
0
0
0
0
0
0
0
0
0
0
0
0
0
0
0
0
0
0
0
0
0
0
0
0
0
0
0
0
0
0
0
0
0
0
0
0
0
0
0
0
0
0
0
0
0
0
0
0
0
0
0
0
0
0
0
0
0
0
0
0
0
0
0
0
0
0
0
0
0
0
0
0
0
0
0
0
0
0
0
0
0
0
0
0
0
0
0
0
0
0
0
0
0
0
0
0
0
0
0
0
0
0
0
0
0
0
0
0
0
0
0
0
0
0
0
0
0
0
0
0
0
0
0
0
0
0
0
0
0
0
0
0
0
0
0
0
0
0
0
0
0
0
0
0
0
0
0
0
0
0
0
0
0
0
0
0
0
0
0
0
0
0
0
0
0
0
0
0
0
0
0
0
0
0
0
0
0
0
0
0
0
0
0
0
0
0
0
0
0
-1.989765796757072750709775e-60
-1.888783430580749129931016e-48
-1.003562225781154217369089e-46
-2.661250448768115675396491e-45
-4.69619581491284710158789e-44
-6.20410309431491915696573e-43
-6.545059526545987291207172e-42
-5.743535909539385591522681e-41
-4.312321934422546334672663e-40
-2.827901985324169477438317e-39
-1.64542701380247898242274e-38
-8.601006418103320008289029e-38
-4.079822714086610971667227e-37
-4.762606652067032967177058e-37
-5.551535999891441453016389e-37
-6.461510630193609997162753e-37
-7.509214844125627805385004e-37
-8.713273254673288882097906e-37
-1.00944091723005690744096e-36
-1.167560296549098495749337e-36
-1.348224727216865238080689e-36
-1.554229527806895558430437e-36
-1.788639755891834075912852e-36
-2.05480222118689170380508e-36
-2.356355218899980092353132e-36
-2.697235290713160520780724e-36
-3.081680236414932612635984e-36
-3.514227516823679053216726e-36
-3.999707111523182471014193e-36
-4.543227826892228895955165e-36
-5.150155995483467699164347e-36
-5.826085472154734888049192e-36
-6.57679782124174881638567e-36
-7.408211608827689505416204e-36
-8.32631977145000224586143e-36
-9.337114134384046855899243e-36
-1.04464963057313146268508e-35
-1.166017438349769076053164e-35
-1.298354518736861538159216e-35
-1.442156206955465361540255e-35
-1.597858877267231941533302e-35
-1.765824028767433494565883e-35
-1.946321221894376216178258e-35
-2.139510078089390721383111e-35
-2.345421622077350797699849e-35
-2.56393931712359747539348e-35
-2.794780216391894346306501e-35
-3.03747672569803517006991e-35
-3.291359541509623509478781e-35
-3.555542389498950333723023e-35
-3.828909239374773197160529e-35
-4.110104706885761609734551e-35
-4.397528369399840453057324e-35
-4.689333712952123802481394e-35
-4.98343239206381264648239e-35
-5.277504415414099841070956e-35
-5.569014767971268623189979e-35
-5.855236841978912742206836e-35
-6.133282875318490866930466e-35
-6.40014138808177625583293e-35
-6.652721370607915984817896e-35
-6.887902714886242001411497e-35
-7.102592104466099878423685e-35
-7.293783296398977030346143e-35
-7.458620454694724266509885e-35
-7.594462942250240009631719e-35
-7.698949762021897623535395e-35
-7.77006167329920247306756e-35
-7.806178909476808068969728e-35
-7.80613240210982176153219e-35
-7.76924648189302556997265e-35
-7.695371186411576419435688e-35
-7.584902558289100711538609e-35
-1.338935921200799779799984e-34
-2.219631059266596278299719e-34
-3.471327499270827091417472e-34
-5.141677194419047552462921e-34
-7.237405736501709318008445e-34
-9.710023260315730640085398e-34
-1.24495977689780440990249e-33
-1.528972976065721047403302e-33
-1.802431057006970908630902e-33
-2.043364967996307532794671e-33
-2.231504688025664583465057e-33
-2.351164843844573601386886e-33
-2.393382250529645714603355e-33
-2.356914535414703474789603e-33
-2.247979699384602507572144e-33
-2.078891646847357713516502e-33
-1.865954115013471133120509e-33
-1.627072139754518510215884e-33
-1.379520572885362164469621e-33
-1.138199478081253747651466e-33
-9.145505573441063492493569e-34
-7.161527692852622400202324e-34
-5.468935755162145568741757e-34
-4.075421142560327321082427e-34
-2.965324940298510044592619e-34
-2.107877616225463571324599e-34
-1.464609166112615721213503e-34
-9.952200774003944185341425e-35
-6.616740110558214868028173e-35
-4.306185724265137029068971e-35
-2.744427260602173664837979e-35
-1.713557262948380303836952e-35
-1.048582986636284309713242e-35
-6.291090370790085236402961e-36
-3.701880750032727392848021e-36
-2.137174790737247739289529e-36
-1.210933313758743555887511e-36
-6.735945090795032026890582e-37
-3.67963729930834117776885e-37
-1.974533453870616211932081e-37
-1.041110804387760576558769e-37
-5.395326725461055698224249e-38
-2.748766896984732607885223e-38
-1.377096498423755207229234e-38
-6.785786583786735850403529e-39
-3.289612763864625641557308e-39
-1.569256892355422085605154e-39
-7.367847565301025530634281e-40
-3.405446407902155312413548e-40
-1.549818495527681352824612e-40
-6.94615893461855213303101e-41
-3.066526393729761722867786e-41
-1.333721881395084479088444e-41
-5.715792371378414347128407e-42
-2.414092454573961574592056e-42
-1.005007024867545199339339e-42
-4.124690520014610137449765e-43
-1.669121689331200595912363e-43
-6.660768349174156567498756e-44
-2.621584263645560170210249e-44
-1.017813358090792850715392e-44
-3.89849744218798647923983e-45
-1.473361911988368540013918e-45
-5.494920432343989793016608e-46
-2.022592258264746857112167e-46
-7.34858876622727413508808e-47
-2.635727531272246237529656e-47
-9.333595495589534688712647e-48
-3.263615192956520071644876e-48
-1.126934754650026166832417e-48
-3.843222940490143577381766e-49
-1.29459910914563487834448e-49
-4.307871596621509114324134e-50
-1.416190290827080225001856e-50
-4.59996492824974319626435e-51
-1.476396710975600532800994e-51
-4.682824192134540780292973e-52
-1.467940657136026400464454e-52
-4.548243347699683472671571e-53
-1.393000300079819654222793e-53
-4.217624790656395208459891e-54
-1.262495735541471548263432e-54
-3.736563306774309604597973e-55
-1.093527237374755653698715e-55
-3.16472007091743277746428e-56
-9.057790448372818449179214e-57
-2.564027014774560335727643e-57
-7.179061045476868948222063e-58
-1.988328201263640318145746e-58
-5.447708224244502776390853e-59
-1.476638669174087437150223e-59
-3.960024756521750212133276e-60
-1.050782478607786028966542e-60
-2.758966117838956835919241e-61
-7.168450438917316836331667e-62
-1.843213891374315234499071e-62
-4.690544667823145478167283e-63
-1.181388941261052540639857e-63
-2.945160972810454638638048e-64
-7.267675984883781490535392e-65
-1.775316511358614224056376e-65
-4.29311518430006396071828e-66
-1.027798728390788379365341e-66
-2.436150732263728511171497e-67
-5.717182168387987025455733e-68
-1.328502723548839487207553e-68
-3.056790446081369347736776e-69
-6.964844956173648102532556e-70
-1.571517032156281779487748e-70
-3.5116190293849238715631e-71
-7.771318239996651982918604e-72
-1.703330254181311799107988e-72
-3.697747866342626394625619e-73
-7.95109491302697217606365e-74
-1.693496355984719551058531e-74
-3.572936521224696056389117e-75
-7.467334383149963104688128e-76
-1.546038354815714632463018e-76
-3.171056170988913870207717e-77
-6.443632919515196756410081e-78
-1.297222724766586108819948e-78
-2.587429056612022560466594e-79
-5.11334710154687577464632e-80
-1.001237976869021141893085e-80
-1.942568674672816973230864e-81
-3.734511437491217971926881e-82
-7.114106593225531334306862e-83
-1.342908450254933951554513e-83
-2.51201186731933926826933e-84
-4.656455382930461843960474e-85
-8.553746313176241352898359e-86
-1.557157541278382531262319e-86
-2.809257317496796793645409e-87
-5.022733799956527828231663e-88
-8.899891753051191233827681e-89
-1.562898533020947251331833e-89
-2.720089567673880984670355e-90
-4.691871493618122567747784e-91
-8.020894930338408905840251e-92
-1.358988736762195338030223e-92
-2.282058668837373958272307e-93
-3.798011957489798623277772e-94
-6.264754564153129225095748e-95
-1.024161734613118910238026e-95
-1.65938490118591227601137e-96
-2.664623750206557801181827e-97
-4.240621319383636631169567e-98
-6.688381865690166706612056e-99
-1.045447067323600520972893e-99
-1.619429507991044038648733e-100
-2.485928275740189748890618e-101
-3.781524602213253466585113e-102
-5.700064104389926135467182e-103
-8.513474299173376107944162e-104
-1.259867159530327963873142e-104
-1.847167961841978345357759e-105
-2.682998218748649761291309e-106
-3.860384593597672025697347e-107
-5.501678426208067804336192e-108
-7.76543931374198328403757e-109
-1.085393524889825270655956e-109
-1.502083277595840992858695e-110
-2.057836999229012149293136e-111
-2.790293912502845769113984e-112
-3.74375470131919074579249e-113
-4.968907092833915537910836e-114
-6.52175934416308247087968e-115
-8.461440655315299967857259e-116
-1.08464561994692955206325e-116
-1.372891713635487155842953e-117
-1.714621082466150982541576e-118
-2.110954384427674960157837e-119
-2.558879270726935574623139e-120
-3.049314800205030123856415e-121
-3.564715135350003082348256e-122
-4.076191426906952327624573e-123
-4.540158431493715820464249e-124
-4.894549307382485023130052e-125
-5.054688100838637562938242e-126
-4.908963662083446617968982e-127
-4.314509011935346256508244e-128
-3.093153192473739635661915e-129
-1.027973806074103530284914e-130
2.139167938663519506083135e-131
6.708688400899561417688785e-132
1.302249940129482542817048e-132
2.146095328760956036695069e-133
3.243712987508300068140399e-134
4.638816300109617344598222e-135
6.376342829782982484336641e-136
8.50095773387499965703365e-137
1.10552601670816717911139e-137
1.40777334490856435419866e-138
1.760050349896832986253841e-139
2.164699343378324429119423e-140
2.622958340582818890939763e-141
3.134740170835157212739305e-142
3.698438395872536888470646e-143
4.310774005654264971011558e-144
4.966696232707108184228251e-145
5.659349211731972559580349e-146
6.380113617270113524913346e-147
7.118728926546211444675517e-148
7.863497747689861581890104e-149
8.601568971158674112976623e-150
9.319291650316039006663393e-151
1.000262683931121780041989e-151
1.063760046650812210846208e-152
1.121077703297607291615426e-153
1.170973178075571735434217e-154
1.212349817936617728876611e-155
1.244296823743250143236482e-156
1.266122525380792523625971e-157
1.277379206017483091043563e-158
1.277878234979533058105342e-159
1.26769480225089640946593e-160
1.247162122991926786457288e-161
1.216855557330506896043806e-162
1.17756762905825687713808e-163
1.130275390600046675063227e-164
1.076101941244561506636576e-165
1.016274140547111001526852e-166
9.520786587321137746499159e-168
8.848184711231283648671949e-169
8.157717444448314814709221e-170
7.461547981572226835348655e-171
6.770904791657513747641638e-172
6.095828926002283427021058e-173
5.44499015429380687026488e-174
4.825573127522904119554467e-175
4.243231044568706445145074e-176
3.702101131388142377903135e-177
3.204873770588097358153863e-178
2.752905421337005830660821e-179
2.346364557001584292662916e-180
1.9843996750373031893206e-181
1.665318908892119099798178e-182
1.386771770608496098433854e-183
1.145924932859204934210819e-184
9.396255730790790842441352e-186
7.645475104124137580944119e-187
6.173170454094656081941039e-188
4.946169631517191393279183e-189
3.932685098145537386399089e-190
3.102922549987602269321319e-191
2.429495874650367002065497e-192
1.887671623104199796133567e-193
1.455469427644895809181553e-194
1.11364591768441118880795e-195
8.455890687995369402638853e-197
6.371479929008862987694857e-198
4.764203547283274683413223e-199
3.535162613692169649829635e-200
2.603139406039124487091286e-201
1.902190581063669880047709e-202
1.37936312117457278620782e-203
9.925911162857584941618685e-205
7.088075779413612042535835e-206
5.022862874901609895289539e-207
3.532139994662118887526956e-208
2.46482753110753341550442e-209
1.706850351084990082974551e-210
1.172904615226743116706844e-211
7.998087733699422892374984e-213
5.412071868626005777609789e-214
3.63406256293921147840239e-215
2.421419622321731361712716e-216
1.601008802819139810861614e-217
1.050413783703466423081928e-218
6.838596740766716226634565e-220
4.417841870950634337024656e-221
2.83195576518822859320321e-222
1.801325794813404501105186e-223
1.136904000304925398234835e-224
7.119952681776407589168926e-226
4.424336117892470648255857e-227
2.727925860419292195165292e-228
1.668883627964460167684942e-229
1.01303402057385627611054e-230
6.101291607162419671404685e-232
3.64598139203172780750806e-233
2.161707916363045518299594e-234
1.271640385293658994251086e-235
7.421830425553978763555797e-237
4.297656397011297790591911e-238
2.468997669663113302238187e-239
1.407253135633805745247388e-240
7.95756878920583021106946e-242
4.464153651948309567065896e-243
2.48451827324953571934635e-244
1.371776013380121791835193e-245
7.513730762002612653031765e-247
4.082749947017930079733516e-248
2.200735364075434333876154e-249
1.176775870605995954352873e-250
6.241995168768754889304111e-252
3.284350781091038139434733e-253
1.714212316924378616602107e-254
8.874850248122013030546408e-256
4.557545577045480798339191e-257
2.321488997326417809570728e-258
1.172896682398485156833637e-259
5.877628585126607453045132e-261
2.921361780029176926403893e-262
1.440126941604224699141301e-263
7.041086396627100037247008e-265
3.414232622306588815605651e-266
1.641919945296778494778808e-267
7.83081591858663841514965e-269
3.703810624144827404324364e-270
1.737271255764363812388383e-271
8.080789660059854542068992e-273
3.727325359882354670682065e-274
1.704857108899510821448303e-275
7.732421278780590631994653e-277
3.477517703780303992448774e-278
1.550739334963852781497761e-279
6.85666560024670602718063e-281
3.005943125066433797456691e-282
1.306564603254626160651754e-283
0
0
0
0
0
0
-4.280103771628448822036699e-46
-2.282722677170291840357836e-44
-6.07580166362216437325208e-43
-1.076072032023148027680478e-41
-1.426645154238697723135812e-40
-1.510265237891955729504725e-39
-1.329777473095461864737775e-38
-1.001670239416081680694795e-37
-6.589350616935941436396264e-37
-3.845644433188826744705563e-36
-2.016028054781331994236664e-35
-9.589303024397020669014553e-35
-4.172938703381756735976804e-34
-1.672959050519580751005211e-33
-1.909591823205233257719227e-33
-2.176081802857925010442104e-33
-2.47557314021183311454426e-33
-2.811436606234464260577733e-33
-3.18726812926437226763696e-33
-3.60688354048103383057243e-33
-4.074308885936889511660724e-33
-4.59376563168433696864334e-33
-5.169650067697273955572788e-33
-5.806506209404145984367688e-33
-6.508991506062214363486899e-33
-7.281834696450186493405748e-33
-8.129785208081871173625348e-33
-9.057553579981587860922704e-33
-1.006974250449415734708698e-32
-1.117076823377437256532272e-32
-1.236477228413137163544408e-32
-1.365552359813404395918454e-32
-1.504631159113816551017004e-32
-1.653983081519437649227686e-32
-1.813805831707946254755361e-32
-1.984212514454388591718541e-32
-2.165218385975076206864745e-32
-2.356727434291899061747084e-32
-2.558519060151434217460368e-32
-2.77023517274964742117949e-32
-2.991368055113726828580751e-32
-3.221249390638412795959056e-32
-3.459040872918498743334249e-32
-3.703726843457604953247518e-32
-3.954109413767488278282152e-32
-4.208806527507499492382061e-32
-4.466253402447162442482504e-32
-4.724707759205045909106606e-32
-4.982259192313970356515019e-32
-5.23684296810237604932664e-32
-5.486258442730782292843084e-32
-5.728192182871541518948207e-32
-5.960245742277650894392558e-32
-6.179967902220853815403571e-32
-6.384891025941055806770599e-32
-6.572571011425017153243543e-32
-6.740630158656973307220894e-32
-6.886802103561251287767327e-32
-7.00897781853136794414899e-32
-7.105251546554979006618597e-32
-7.173965430473119548044742e-32
-7.213751528573879639108889e-32
-7.223569879498912971129002e-32
-7.20274129912942840244788e-32
-7.150973663816985205775219e-32
-7.068380560019455281469087e-32
-6.955491359584280788303384e-32
-6.813252009329452586617777e-32
-6.643016097070532797361012e-32
-6.446526064877441470054226e-32
-6.225884772570785536763954e-32
-5.983517956588520226912828e-32
-5.722128466122891788607391e-32
-5.444643473843141501679109e-32
-8.518800268179530292010929e-32
-1.261715772792758636396422e-31
-1.775044472914584333080184e-31
-2.379181280521886169696934e-31
-3.046282810643482056041206e-31
-3.734772375724985959797521e-31
-4.393687045781134964871268e-31
-4.96928571844700950846625e-31
-5.412643310211664698570097e-31
-5.686678721880529385984487e-31
-5.771203184130750436391565e-31
-5.66507367220588594525687e-31
-5.385228729574738956101078e-31
-4.963064616247737637840342e-31
-4.4391008985897385200507e-31
-3.857089058486132845005794e-31
-3.258633483976468040586906e-31
-2.679096801442262038501294e-31
-2.145165684146054894282453e-31
-1.674072003110979730560157e-31
-1.274178541820816449895619e-31
-9.464848291278981632820864e-32
-6.86582010016425434424206e-32
-4.866535255839641103529976e-32
-3.372373009651224584865153e-32
-2.285948917672441602798994e-32
-1.516448927958893982704142e-32
-9.849715020263560988621815e-33
-6.266835032862178039233233e-33
-3.907385201067744568267488e-33
-2.388434667353311352215709e-33
-1.431848973389958643117355e-33
-8.421656903724107258353679e-34
-4.861461607215474447968219e-34
-2.755185316423286027153175e-34
-1.53351710027551531158742e-34
-8.3852000638235976992334e-35
-4.505600204034838279470059e-35
-2.379733422192619277613317e-35
-1.235825947674772874731021e-35
-6.311778225100810589280009e-36
-3.171166790586113392561969e-36
-1.567698550248686956749726e-36
-7.627482765482579072333432e-37
-3.653173728320216717237625e-37
-1.722746415894611603698423e-37
-8.000596342858897433721695e-38
-3.659806003217801702744735e-38
-1.649339495736027595220146e-38
-7.324145219604885934836444e-39
-3.20534297477369312991688e-39
-1.382725047118377608803466e-39
-5.880462160738274209280164e-40
-2.465866248377179299541912e-40
-1.019707981843114553040051e-40
-4.159048650300765834420794e-41
-1.673345485884258954002297e-41
-6.642173961096449092232696e-42
-2.601510531371518693507747e-42
-1.005512690594719122352133e-42
-3.835750580964548288537346e-43
-1.444330517779971734384117e-43
-5.368924371370072309828835e-44
-1.970434619406840426377012e-44
-7.14067038029503507768907e-45
-2.555435874210377745471088e-45
-9.032034409149006941844496e-46
-3.1531534211903673441313e-46
-1.087393425493458260615386e-46
-3.704694697643331581960174e-47
-1.247048177531851460268199e-47
-4.14781202671985229591469e-48
-1.363323370958747090140675e-48
-4.428541070160835841631101e-49
-1.421809957983303529799742e-49
-4.512089674602688313170419e-50
-1.415482690093346273243561e-50
-4.389920271504531137346259e-51
-1.346070191882705784237203e-51
-4.081039532938259764055571e-52
-1.223483732689523004156513e-52
-3.627283267124137048406622e-53
-1.063534311884982202202971e-53
-3.084171479944533695228444e-54
-8.846512099289498850730192e-55
-2.510042780787427039498073e-55
-7.045210748184485510739925e-56
-1.956313289082561133328841e-56
-5.374542782384406825783402e-57
-1.460931767825618440359881e-57
-3.929430973295493449798405e-58
-1.045842318764975802601941e-58
-2.754638026451276102234316e-59
-7.180407528106753301937039e-60
-1.852438578987700931613667e-60
-4.73011993109593742673654e-61
-1.195520575187396485660845e-61
-2.991031595252072975581983e-62
-7.407744494354169652556867e-63
-1.816241423518216573931628e-63
-4.408641965864922471527773e-64
-1.059498602853911004622871e-64
-2.521044070906013436348044e-65
-5.939702950296648281065876e-66
-1.385710685566255500828784e-66
-3.201273939394734348740341e-67
-7.32375826000407219797626e-68
-1.659296825581984595438596e-68
-3.72315137821088633487211e-69
-8.273914509498324980077916e-70
-1.821133831175669745716356e-70
-3.97026553490040714282636e-71
-8.573537438488092041789312e-72
-1.833913626800253845107943e-72
-3.885895842244070169569237e-73
-8.156645386182392101108516e-74
-1.696111645720423277270898e-74
-3.494085909981515161460537e-75
-7.13119719140593678991465e-76
-1.44196275863895249158722e-76
-2.888823101584343789753068e-77
-5.73423245194207113350284e-78
-1.127791380199353336962655e-78
-2.197822494995609214942618e-79
-4.244021705382528045920426e-80
-8.120710279740159577877957e-81
-1.539755231089037899178835e-81
-2.893076555125778949891432e-82
-5.386758802829858120858794e-83
-9.939459535764254094574763e-84
-1.817495585909495295582985e-84
-3.293566688296187876515264e-85
-5.914916407128938694799345e-86
-1.052751193616656698955914e-86
-1.856962484702656241964138e-87
-3.246275406311630182243652e-88
-5.624401297308715796049302e-89
-9.657818491358545270975761e-90
-1.643598960535809171465463e-90
-2.772223016025445569323519e-91
-4.634217760928466874746222e-92
-7.677859367619975860532704e-93
-1.260717299383026499777692e-93
-2.051664525250124916780988e-94
-3.30904011963577782512885e-95
-5.289314013377017034731968e-96
-8.378984383515705117947907e-97
-1.315435446716984251630393e-97
-2.046554968770838041315695e-98
-3.155299253900936268859839e-99
-4.820657261779450711517928e-100
-7.29799024230669263554457e-101
-1.094741408096545897555618e-101
-1.627075733392829493919124e-102
-2.395879737857712943997898e-103
-3.495040370632573681003703e-104
-5.050489270665920852611644e-105
-7.228820036034325817399383e-106
-1.024722576240729589497279e-106
-1.438450313922652998060038e-107
-1.999258761978712011876099e-108
-2.750769270779156913574358e-109
-3.745960666418474736104065e-110
-5.04770379331201287729644e-111
-6.728609081680337982097462e-112
-8.869800320789263230485352e-113
-1.155812150834229126644011e-113
-1.48811710975692578848827e-114
-1.89194472456432880777599e-115
-2.373479021855025547270353e-116
-2.935423890305781813769334e-117
-3.574839574414217794475608e-118
-4.280343939558801544461161e-119
-5.028605944981439146335567e-120
-5.780083492349414905019718e-121
-6.473995695044763440408149e-122
-7.022571963790142809933909e-123
-7.304687510471767111345576e-124
-7.159076015789831169566843e-125
-6.377402739609217186275868e-126
-4.697580847236757023875675e-127
-1.797813751910090523122181e-128
2.708061529235943937463533e-129
9.273280643519173047177872e-130
1.841821298587258101890769e-130
3.072707760722770086112689e-131
4.684065960061984452100228e-132
6.744447760773790981753711e-133
9.325202261245450872449539e-134
1.249829228321066205752456e-134
1.633361842217931819313317e-135
2.089589994833821451259748e-136
2.624119926457686248705404e-137
3.241321473759813119116393e-138
3.943950264877878824472375e-139
4.732781959881905200560324e-140
5.606279873346749361238043e-141
6.56031836717303823458549e-142
7.587984060308256312771778e-143
8.679475011883669360402582e-144
9.822114549918894957366524e-145
1.100049142101765305596003e-145
1.219673164319152755237424e-146
1.339090019795173673645539e-147
1.456152295208141147407741e-148
1.568621148523015550111291e-149
1.674236638445821233772535e-150
1.770792860849451880647037e-151
1.856214421956255676205371e-152
1.928630551926561590056753e-153
1.986443165120874371476149e-154
2.028385411896656961347471e-155
2.053567730149593069498533e-156
2.061509063967815565179971e-157
2.052151727098714861702371e-158
2.025859293962382611257677e-159
1.983397836996476602147155e-160
1.925901730844447466629961e-161
1.854826049686951004339601e-162
1.771888241121388475364583e-163
1.679002228619240032517408e-164
1.578208350716908927609287e-165
1.471602581760829168611045e-166
1.361268306066020099568337e-167
1.249213559583111765606119e-168
1.137316147447532710730018e-169
1.02727843715634776148236e-170
9.205929645319295360151603e-172
8.185193217069067532520057e-173
7.220721675177959613225494e-174
6.320196480446192093198617e-175
5.48891066184685678521574e-176
4.72992311117240267539205e-177
4.044273576021403221284414e-178
3.431240677052410709048993e-179
2.888625618930930668912371e-180
2.413045543944401705097449e-181
2.000222472257128047422025e-182
1.645256246130664859981079e-183
1.342872614092405749371068e-184
1.087640343290391672182675e-185
8.741538561705493193136479e-187
6.971802146671347962151971e-188
5.517712290326546816737638e-189
4.333429999913084709467536e-190
3.377263012039332630241243e-191
2.611918948608326322693322e-192
2.004551909726753236373563e-193
1.526646704289146272468344e-194
1.153782606238786260139097e-195
8.653144891505380297432118e-197
6.440040765679089725204727e-198
4.756284138055892619779787e-199
3.485869806816359255801541e-200
2.53523475626493429206332e-201
1.829734534790944056548114e-202
1.310448375392356163311357e-203
9.313491360593523830147905e-205
6.568474683937371557271986e-206
4.596999089074631802787722e-207
3.192570158412937672769018e-208
2.200192685599098724886564e-209
1.504641818625719510018075e-210
1.021069769407817178885772e-211
6.875830274463164761561482e-213
4.594515341347865480576721e-214
3.04646584372516265669751e-215
2.004435212720709744622826e-216
1.308650652268980043792094e-217
8.477897209051341049421192e-219
5.449816133991994923930274e-220
3.476171877700568524379728e-221
2.200100741461252231317766e-222
1.38166232643320012789568e-223
8.609446266144079921102413e-225
5.323021939678160311959167e-226
3.265477137134074646073373e-227
1.987631460217934342074572e-228
1.200386812272175746441735e-229
7.192798101547319251792182e-231
4.276227830980925990026158e-232
2.522347802220699284860605e-233
1.47613127029827437105964e-234
8.570682751091851971268942e-236
4.937085984617504529260699e-237
2.821532420907841946701312e-238
1.599751699862400073893511e-239
8.998440386968225248075983e-241
5.021377010067352161415217e-242
2.779796346172907854581192e-243
1.526620822652151372756211e-244
8.317077921209803973670335e-246
4.49495062614663288216999e-247
2.409831477735100117554396e-248
1.281589325600601249040501e-249
6.760896138127309768910661e-251
3.537898562415110445200435e-252
1.836388718690036547208282e-253
9.454840789868552879303481e-255
4.828433630897659102339537e-256
2.445753423316511278741e-257
1.228754679591845116491031e-258
6.122875085265873467415069e-260
3.026040506729081903401503e-261
1.483250335051352856337873e-262
7.210504320529330763345183e-264
3.476315738331927935877017e-265
1.662133572602720664493202e-266
7.881272366475839930395357e-268
3.70596111045123002060586e-269
1.728103330834437625481518e-270
7.990849085323258314311082e-272
3.664041503613077857566651e-273
1.665949199771024120381844e-274
7.510805801170969403750161e-276
3.357561904542880504964397e-277
1.488207056430609801397562e-278
6.540236484755082447422213e-280