# geometry NO_DATA 364
#  x  y  z
0.7442488936013439415617654 0.03637153442161592670212045 0.4921226408202719615481158
0.7384977872026878831235308 -0.01666666666666666296592325 0.4874346608121518653611304
0.7442488936013439415617654 0.003038201088282591229294827 0.4921226408202719615481158
0.7362848920938231955801712 0.01224087644893710052906854 0.488497787202687938634682
0.7398231033836142334081387 -0.009590244087084172711077379 0.4942488936013439415617654
0.7398231033836144554527436 0.03407199698495837203449099 0.4942488936013439415617654
0.7439295333474698068698672 -0.0384977872026879344713457 0.4928664069569337891074667
0.7417166382386050083042051 -0.0384977872026879344713457 0.4939295333474698068698672
0.7417166382386050083042051 0.0384977872026879414102396 0.4939295333474698623810184
0.7439295333474698068698672 0.0384977872026879414102396 0.4928664069569337891074667
0.786111560334238679281782 0.01064400344496361019985819 0.4775437747215765527108999
0.7930557801671194173565027 0.03008889711253550161562664 0.4842548899445109356065586
0.7930557801671194173565027 -0.008800890222608281215910253 0.4842548899445109356065586
0.7826251688640832870902386 -0.02076098660352460739675351 0.4798469418631779448425334
0.7916165486653929939109275 -0.0361115603342385543816917 0.4858269900536361096676785
0.7729027220302973066878849 -0.03464942626928604885172547 0.4885062623064279074824867
0.7729027220302973066878849 0.03464942626928604885172547 0.4885062623064279074824867
0.7826251688640832870902386 0.02076098660352460739675351 0.4798469418631779448425334
0.7916165486653929939109275 0.0361115603342385543816917 0.4858269900536361096676785
0.7771201805329290834833955 -0.001316092935952715980985062 0.4715637265311183878857548
0.7750730205645002257597298 0.002778227000905224113036507 0.4722947935635947169785709
0.7653505737307140233127711 0.01454041388559464999252757 0.480954114006844624107373
0.757675286865357122678688 0.03252317348821404108250022 0.4888823674176182576545102
0.757675286865357122678688 -0.003442345717024734158551169 0.4888823674176183686768127
0.8346436869961493254521656 0.01470768207159102447523225 0.4810434873729793059382587
0.8423218434980747071350038 0.03268470240107379520821951 0.4890525052401828998149824
0.8423218434980747071350038 -0.003269338257891748859840231 0.4890525052401828998149824
0.8308663110076568436568323 -0.02045086933207703253079224 0.4795559573448405776829873
0.8404365688422872349150339 -0.03464368699614944063780442 0.4881467228819332260236763
0.8218778008429153958402935 -0.03580718233592759813799233 0.4855331358987304835039822
0.8218778008429153958402935 0.03580718233592759813799233 0.4855331358987304835039822
0.8308663110076566216122274 0.02045086933207703600023919 0.4795559573448405776829873
0.8404365688422871238927314 0.03464368699614944757669832 0.4881467228819332260236763
0.825073429161518934193964 -0.002473849002594260063081499 0.4724527218358867131087209
0.8231813278288138135962981 0.001310353662816108851266184 0.4718709741659976586447556
0.8141928176640723657797594 0.01064400344496361019985819 0.4778481527198875089545993
0.8070964088320362606054914 0.02978451911422454190248033 0.4844070789436664137284083
0.8070964088320362606054914 -0.008496512224297321502763936 0.4844070789436664137284083
0.8585486292008635000883032 -0.03779871174749271922621574 0.4963473409483561415989072
0.8597533031778975542991361 -0.01177069651744703723816876 0.4926946818967122831978145
0.8585486292008635000883032 0.01425731871259864128043127 0.4963473409483561415989072
0.8561006441262537514091946 -0.04269468189671234148452328 0.4953678486508182876590922
0.8561006441262537514091946 0.04269468189671236230120499 0.4953678486508183986813947
0.8536526590516438917077835 0.04073569730163670993272618 0.4943883563532805447415797
0.857305318103287694597725 0.01470768207159102620995572 0.4917151895991745402803019
0.8536526590516438917077835 -0.01132033315845465577809126 0.4943883563532805447415797
0.6844373910979346664618106 0.01109855989977751380970439 0.5294452221852874451712978
0.6922186955489673110264448 0.02886928433104541530385134 0.5355465310174768456263905
0.6922186955489673110264448 -0.006672164531490391153889519 0.5355465310174768456263905
0.6857218456888176660868339 -0.006479368439301310712841175 0.5422012141281188357666565
0.6795591016522305460867415 0.01125639315026989890899944 0.5344024282562378491689969
0.6857218456888176660868339 0.02899215473984109725513747 0.5422012141281188357666565
0.6833048156868359868099105 -0.01794810426984740775457894 0.5322007579222346462799464
0.6917268389394590766272586 -0.03443739109793456099062325 0.5378387277914131736622494
0.6822182393430831215397347 -0.01791314142815070287184653 0.5332873342659876225724247
0.6879351258375077105000628 -0.03440242825623785610789085 0.5417093575186106013674703
0.6822182393430831215397347 0.0179131414281507340968691 0.5332873342659875115501222
0.6879351258375077105000628 0.03440242825623787692457256 0.5417093575186107123897727
0.6833048156868359868099105 0.0179481042698474320407076 0.5322007579222346462799464
0.6917268389394590766272586 0.03443739109793457486841106 0.5378387277914131736622494
0.676015367845311687666765 -0.0001773798385795045257085079 0.5238072523161090288112973
0.6753746490437212424140512 0.001104057764601251104968904 0.5242705912791199018840871
0.6742880726999682661215729 0.001069094922904555763215617 0.5253571676228727671542629
0.673842215157805846104111 -0.0001773798385794952557799331 0.5259804050036148703739514
0.7345452965097126751814471 -0.03660075239600095453607054 0.5200915249519106886566533
0.7200915249519108662923372 -0.03660075239600095453607054 0.5339741382351328446986827
0.7200915249519108662923372 0.03660075239600095453607054 0.5339741382351328446986827
0.7345452965097126751814471 0.03660075239600095453607054 0.5200915249519106886566533
0.735607166917603194633557 -0.007693209280397191041078742 0.5066996238019993992196532
0.7278530191618007849641003 0.01224087644893709359017464 0.5133992476039989094616089
0.735607166917603194633557 0.03217496217827138516032193 0.5066996238019993992196532
0.7133992476039989760749904 0.01109855989977750340136353 0.5272818608872209544813359
0.7066996238019994658330347 0.03103264562911179497151082 0.5344648503684436002814095
0.7066996238019994658330347 -0.00883552582955678122988985 0.5344648503684436002814095
0.8874827416051267459096152 0.009587677603388687283536562 0.5256444305299008412646344
0.8937413708025633285458866 0.03040375254184879763585947 0.5325129734674917125758498
0.8937413708025633285458866 -0.01122839733507144735491501 0.5325129734674917125758498
0.8795226892105065807925257 -0.03748274160512677505296963 0.5193858013324641476060606
0.8795226892105065807925257 0.03748274160512680280854525 0.5193858013324641476060606
0.8732640600130698871339519 -0.01666666666666664214924154 0.5125172583948730542502403
0.8653040076184496109945599 -0.02428795491232024761352193 0.5062586291974364716139689
0.8653040076184497220168623 0.00904537842101308872666543 0.5062586291974364716139689
0.9257011980931371120107087 0.00109292685631700377431319 0.5253917287631794108548888
0.9261702941888061424435818 -0.0001547346649788618644545679 0.5260155595238273917857441
0.9212222200562123486378141 -0.009741413600208772421984449 0.53442626018965011525097
0.9158050498279496354214757 -0.02750100712319244328218915 0.5422131300948250798299455
0.9158050498279496354214757 0.008018179922774894968773296 0.542213130094824968807643
0.9250630018302411494701687 -0.002369319382108745625226121 0.524908267165262398812331
0.9166523011644184260049428 -0.018881251383796544829341 0.529779473299446079792574
0.9123424232947205947397151 -0.0344262601896503372955749 0.5386736355631859263226602
0.9166523011644184260049428 0.01888125138379656217657576 0.529779473299446079792574
0.9123424232947205947397151 0.0344262601896503372955749 0.5386736355631859263226602
0.9250630018302411494701687 0.002369319382108761237737404 0.524908267165262398812331
0.9245939057345721190372956 -0.001121657860812880040668471 0.5242844364046144178814757
0.9239557094716761564967555 0.0001547346649788774769658517 0.5238009748066974058389178
0.9155450088058536550761346 0.009587677603388671671025278 0.5286721809408813088637658
0.9077725044029267831291463 0.02737600213086822248387264 0.5340268486729820018865666
0.9077725044029267831291463 -0.00820064692409088608071599 0.5340268486729820018865666
0.6470655435345320505291511 0.04104199147993529972477944 0.5939764479454032741756464
0.6441310870690640788538417 -0.01666666666666656235196164 0.5925865392744997794949313
0.6470655435345320505291511 0.007708658146601971190847724 0.5939764479454032741756464
0.6435108881225730659281226 0.01542626877368474293261702 0.5941310870690641454672232
0.6458251456415498026331079 -0.01203815162871280965151133 0.5970655435345321171425326
0.6458251456415499136554104 0.04289068917608220010695419 0.5970655435345321171425326
0.6468425961215531483361474 -0.04413108706906411493608999 0.5952980483269889599995395
0.6462223971750620243881258 -0.04413108706906411493608999 0.5968425961215533259718313
0.6462223971750621354104283 0.04413108706906422595839246 0.5968425961215533259718313
0.6468425961215531483361474 0.04413108706906422595839246 0.595298048326988848977237
0.684198246445163471562978 -0.03649760296795483138776461 0.570236716536695276147384
0.670236716536695142920621 -0.03649760296795482444887071 0.5853588354087975176298642
0.670236716536695142920621 0.03649760296795485220444633 0.5853588354087975176298642
0.684198246445163471562978 0.03649760296795484526555242 0.570236716536695276147384
0.6846742583329590292606781 -0.00857454315101828165590625 0.5567511985160225052027272
0.6774639269405133834567323 0.01125639315026989717427597 0.5635023970320450770188359
0.6846742583329590292606781 0.03108732945155806559611733 0.5567511985160225052027272
0.6635023970320450548143754 0.01357757107753775928371542 0.578624515904147318501316
0.6567511985160223719759642 0.03340850737882592597083331 0.5869954362602269881676875
0.6567511985160224829982667 -0.006253365223750417811743318 0.5869954362602269881676875
0.9374001397996138962298573 0.01157021335241292109285993 0.5767183002099258715134056
0.9437000698998070369327706 0.03230368648536019460237867 0.5845368101192726095760577
0.9437000698998071479550731 -0.009163259780534362824999661 0.5845368101192727205983601
0.9304960297663692481151543 -0.03740013979961393647544199 0.5704183701097329528550972
0.9304960297663692481151543 0.0374001397996139572921237 0.5704183701097328418327947
0.9241960996661762184345434 -0.01666666666666664908813544 0.5625998602003861037701427
0.9172919896329316813421428 -0.02234127380059482484431221 0.5562999301001929630672294
0.9172919896329314592975379 0.01099205953273851323059862 0.5562999301001929630672294
0.9609286119894664413010332 -0.0347183818582010236819535 0.5956469938476675052285714
0.9619938152232321293411133 -0.01009106082953291003145857 0.5912939876953348106169983
0.9609286119894667743679406 0.01453626019913545688866385 0.5956469938476673942062689
0.9576408090708994347295402 -0.04129398769533502988604567 0.5930987671905407765393647
0.9576408090708997677964476 0.04129398769533478008586513 0.5930987671905405544947598
0.9543530061523326502026521 0.0361975343810810173961201 0.5905505405334136037609483
0.9587060123046651227696202 0.01157021335241265047599768 0.5887457610382079709054892
0.9543530061523326502026521 -0.01305710767625546143977378 0.5905505405334138258055532
0.637793879174805455889441 -0.004477757693320259455016519 0.6422716368681258281014834
0.6304894842852140079969558 0.01339884937626474939453836 0.6345432737362517450208088
0.637793879174805455889441 0.0312754564458497530399228 0.6422716368681258281014834
0.6396327125658152201737039 -0.03409163367113644121930705 0.6235862448456398476892559
0.6313146079775138197476281 -0.01863490740738811893284499 0.6325245483804323720633533
0.63839318283454782321229 -0.03454327373625166314186075 0.6412370318826671189427202
0.6313146079775138197476281 0.01863490740738813628007975 0.6325245483804322610410509
0.63839318283454782321229 0.03454327373625167008075465 0.6412370318826672299650227
0.6396327125658153311960064 0.03409163367113646203598876 0.6235862448456397366669535
0.640047118604782916406748 -0.00199869823078514027153707 0.6079541831644318383709447
0.6319548340490390714307978 0.01542626877368465099227279 0.6159083663288635879240474
0.640047118604782916406748 0.03285123577815443618455049 0.6079541831644318383709447
0.6236367294607375599824195 0.001209940402918353039365962 0.6248466698636561122981448
0.6234109094281798935099914 -0.0007583003378031118180135906 0.6258307902340168871191395
0.98734636458197866382136 0.01107726493687960153677885 0.6265256012197943924491028
0.99367318229098933191068 0.03175696285219167108726523 0.6340707493125568028347061
0.99367318229098933191068 -0.009602432978432506177624006 0.6340707493125568028347061
0.9802943185428896200050985 -0.03734636458197872210806878 0.6201987835107837243597828
0.9802943185428898420497035 0.03734636458197877761922001 0.6201987835107837243597828
0.973967500833879062938081 -0.01666666666666662133255983 0.6126536354180213139741795
0.966915454794790130144122 -0.02274469624755388191816863 0.6063268177090106458848595
0.9669154547947902411664245 0.01058863708577945095257178 0.6063268177090106458848595
1.025393608138126744222518 0.0005386619314922766075734439 0.6251450537933653794908651
1.025600800517682431589606 -0.0001242771723807626889444361 0.6254765233453019046550025
1.018735628102104939785022 -0.01360606765877430540667703 0.6338719952648256272809135
1.011663263306971760613351 -0.03081139625693324335387047 0.641935997632412824742687
1.011663263306971760613351 0.003599260939384622132175551 0.641935997632412824742687
1.024811456992957170442082 -0.001702964221831416904290313 0.6246871798205765324851768
1.016415985073433558838474 -0.01824535371611731709995396 0.6302879508752066151089366
1.010132963803025640814326 -0.03387199526482559397422278 0.6391412967675191847405358
1.016415985073433336793869 0.01824535371611734832497653 0.6302879508752067261312391
1.010132963803025418769721 0.03387199526482560785201059 0.6391412967675191847405358
1.024811456992956948397477 0.001702964221831456369249391 0.6246871798205765324851768
1.024604264613401483074995 -0.001040025117958377851717922 0.6243557102686400073210393
1.024022113468231687249954 0.0001242771723808018015378085 0.6238978362958511603153511
1.015626641548708075646346 0.01107726493687957898537366 0.6294986073504813539614133
1.007813320774354037823173 0.02878395672150463324712177 0.6355572523779002835908614
1.007813320774354037823173 -0.006629426847745497827779637 0.6355572523779002835908614
0.6401677364444445794688932 -0.00182538181126415963509424 0.691993118255708639097179
0.6320941908386591423507639 0.01549418803348661874408343 0.683986236511417322603279
0.6401677364444445794688932 0.0328137578782373845465159 0.691993118255708639097179
0.6386480351815048139840769 -0.03432254420017077228832747 0.6736152771600389943529308
0.6316221589043303774602123 -0.01830878071158820868946648 0.6822750620824145073584077
0.639863858354492553992543 -0.03398623651141742529890877 0.6911030008491665377334812
0.6316221589043303774602123 0.018308780711588243383936 0.6822750620824145073584077
0.6398638583544924429702405 0.03398623651141745305448438 0.6911030008491666487557836
0.6386480351815048139840769 0.03432254420017079310500918 0.6736152771600392163975357
0.6379042439428459498884649 -0.004257028157239364264674553 0.6578387278999145992841591
0.6307102138212947739503988 0.01339884937626475980287921 0.6656774557998292873861601
0.6379042439428459498884649 0.03105472690976886565583648 0.6578387278999145992841591
0.6236843375441204484488367 0.0006529031780841290742017913 0.6743372407222045783470321
0.6238524913884970768407356 -0.0009892108668374281418844696 0.6751582977446652922282055
0.9978767630653111453398196 0.03546585488831999199987877 0.6875890918230084247753098
0.9957535261306224017019417 -0.01666666666666667684371106 0.69060969050947118574868
0.9978767630653111453398196 0.002132521554986654358648801 0.6875890918230087578422172
0.9909664653790019039902859 0.00709254516342550968277525 0.6957535261306222462707183
0.9883026415620701499165079 -0.02199431430053024397186512 0.6978767630653111009308986
0.9883026415620701499165079 0.03617940462738127027630952 0.6978767630653109899085962
0.9946207749960642718889403 -0.0457535261306224322330749 0.689476939374913166957981
0.989833714244443663154982 -0.045753526130622425294181 0.6946207749960643385023218
0.989833714244443663154982 0.045753526130622425294181 0.6946207749960642274800193
0.9946207749960642718889403 0.045753526130622425294181 0.6894769393749127228687712
1.026538917810273954245304 0.0006130259218457529508602977 0.6740741081115718680294435
1.026229228346521304970906 -0.001232404849350921937495285 0.6749968234971701619429041
1.020288950163008134808251 -0.0106481515176751057039084 0.6809371016806832210832567
1.014658361443247835964598 0.0006130259218457568539881186 0.6859546644785978752878464
1.018358043640086751935314 -0.01851209743786335140680599 0.6671256387907356089073119
1.011248496849776579153968 -0.03456573818268424830302266 0.6584857924964795383715455
1.011649103868752064272485 -0.02792784410618753820898519 0.6838200864319424754356191
1.009408507882077810080546 -0.03394635925517910934878785 0.6709313389275932681954373
1.012417765456573803817264 0.02792784410618751739230348 0.673065916974248779069967
1.003777919162317511236893 0.043981484851008424696861 0.6759489017255078113777245
1.019119681556210910144955 0.01851209743786333059012428 0.6663569772029140914071377
1.010938807386024151924175 0.03394635925517909547100004 0.659408507882077832285006
1.019429371019963781463957 -0.01666666666666667684371106 0.6654342618173156864713746
1.012010134765901181452818 -0.02904032947609008069589365 0.6577171309086577988267663
1.012010134765900959408214 0.004293003857243253909570235 0.6577171309086577988267663
1.003009257574495771692114 0.03369381360870599834145267 0.6867030711832013967210742
1.006018515148991543384227 0.006378995424364231406344494 0.6888376492298571296402088
1.003009257574495771692114 -0.02093582275997752512042283 0.6867030711832017297879815
0.6448959723033421687077293 -0.01311398538789625839440234 0.7068803683360430634152749
0.6474479861516710954560949 0.01511532024877918975458435 0.7061046951270993909943741
0.6474479861516710954560949 -0.04134329102457171001283598 0.7061046951270992799720716
0.6468617468350810195687473 -0.04489597230334211458435689 0.7043283544877141366669093
0.6468617468350810195687473 0.04489597230334211458435689 0.7043283544877142476892118
0.6443097329867522038426841 -0.0166666666666666664353702 0.7051040276966578090878102
0.646275507518491054703702 0.0103901603368287201445419 0.7025520138483289933617471
0.646275507518491054703702 0.04372349367016205301528231 0.7025520138483289933617471
0.6830048922560588708918772 -0.01060444454279023049347863 0.7436093367988491076303603
0.6760884409297555075468722 0.009947562388241543152034296 0.7372186735976982152607206
0.6830048922560588708918772 0.03049956931927330638920637 0.7436093367988491076303603
0.6696977777286048372218374 -0.03721867359769842620309532 0.7287190107715676434807506
0.6696977777286048372218374 0.03721867359769844701977703 0.7287190107715676434807506
0.6563906632011506925294952 0.007438021543135518720557542 0.7138286847442861793311408
0.6627813264023014738768325 -0.01311398538789624625133801 0.7223283475704167511111109
0.6563906632011506925294952 -0.03366599231892801469268051 0.7138286847442861793311408
0.9434232187004933933849316 0.007478426120991919431868489 0.714055207420498327941516
0.9368464374009866091341792 -0.01666666666666666990481716 0.7221624317609891541280831
0.9434232187004933933849316 -0.02585490721234141864304235 0.714055207420498327941516
0.9234179867683375286802061 -0.01019023459863150488091676 0.7368464374009864314984952
0.9165663174351950104323805 -0.03037000533295153986701465 0.7434232187004932157492476
0.9165663174351950104323805 0.009989536135688542248245447 0.7434232187004932157492476
0.9303238018493245053974761 -0.03684643740098671182980894 0.71563979620932705039138
0.9168953512166755359658055 -0.03684643740098670489091504 0.7303238018493243277617921
0.9168953512166755359658055 0.03684643740098671182980894 0.7303238018493246608286995
0.9303238018493245053974761 0.03684643740098671182980894 0.7156397962093272724359849
0.9662112612854283355545704 -0.0423364493852644296900678 0.7043316553703820037668493
0.9543316553703822258114542 -0.0423364493852644296900678 0.7063143163970512228289067
0.9543316553703820037668493 0.04233644938526444356785561 0.7063143163970512228289067
0.9662112612854281135099654 0.04233644938526444356785561 0.7043316553703818927445468
0.9775909871374599546811623 -0.01857723755517225183719887 0.7038317753073675131503251
0.9695431565297815135195947 0.007092545163425525295286533 0.7076635506147354037764785
0.9775909871374599546811623 0.03276232788202328854998413 0.7038317753073675131503251
0.957663550614735514798781 -0.01270134461332811381950592 0.7096462116414047338608384
0.95383177530736773519493 0.01296843810526965637408559 0.7077970973607061733190449
0.95383177530736773519493 -0.03837112733192588748254437 0.7077970973607061733190449
0.6924396341117098341300107 0.009149242363101639172184854 0.7667096082513917831846584
0.6848792682234196016466399 -0.01666666666666664908813544 0.7720142552932607316051872
0.6924396341117098341300107 -0.02418409097023169890272598 0.7667096082513917831846584
0.6764424402959099413834565 -0.0002069891883523912803899414 0.7766494294842625212282883
0.6755659782566906246259464 0.001545934890086375374657068 0.7759799566333955844754655
0.6800773209120404283467565 -0.01955145701099996607963405 0.7667702063845862614499538
0.6890800819724971493229759 -0.03487926822341966964780013 0.7629079545148842456114835
0.6750000451237433418683054 -0.003091779532685707404526809 0.7752070343120958106908347
0.6750000451237433418683054 0.003091779532685773757699765 0.7752070343120959217131372
0.6800773209120404283467565 0.01955145701100001465189138 0.7667702063845862614499538
0.6890800819724971493229759 0.03487926822341969046448185 0.7629079545148840235668786
0.6842781346611179760230925 -0.008057959732672100028327833 0.7576639056062097754562501
0.6786349257398738288316054 0.00994756238824155876454558 0.7653278112124196619348027
0.6842781346611179760230925 0.02795308450915519327129033 0.7576639056062097754562501
0.6735576499515767423531543 0.0002069891883524584467145269 0.773764639139929322197986
0.6741235830845240251107953 -0.00133885545424694031579893 0.7745375614612288739380119
0.7322863952023290767812114 -0.01158705215416635722625038 0.7938734473564955651525565
0.7253330265664212905818431 0.009493175892158001519249844 0.7877468947129910858961921
0.7322863952023290767812114 0.03057340393848235332585617 0.7938734473564955651525565
0.7192064739229168113254786 -0.03774689471299101650725305 0.7810084344263363842486569
0.7192064739229169223477811 0.03774689471299103038504086 0.7810084344263366062932619
0.7061265526435045458697459 0.01201686885267298082746734 0.7681434214961774253893623
0.7122531052870089141038079 -0.009063359193651374448585933 0.774881881782832016014595
0.7061265526435045458697459 -0.03014358723997573319408616 0.7681434214961774253893623
0.893286552188096827364916 0.009138691021491849100777394 0.7658521388333948687332509
0.8865731043761937435476739 -0.01666666666666663521034764 0.7728558976988427753340716
0.893286552188096827364916 -0.02419464231184148550468649 0.7658521388333948687332509
0.8724031792917097405393179 -0.0116731835023016154023745 0.7865731043761937657521344
0.864946702019128599303599 -0.03157962121182873033164995 0.7932865521880968495693764
0.8649467020191284882812965 0.008233254207225476975495759 0.7932865521880968495693764
0.8798887008672201526238155 -0.03657310437619375187434656 0.7661714941898690733879107
0.865718775782736038593157 -0.03657310437619375187434656 0.7798887008672200638059735
0.865718775782736038593157 0.03657310437619379350770998 0.779888700867220174828276
0.8798887008672201526238155 0.03657310437619379350770998 0.7661714941898690733879107
0.9273656470171963706050633 0.0003315230683300270379983143 0.7729658760511333159826108
0.9264314658098455890211653 -0.002199885483031543530890728 0.7742315803268141616300113
0.9243365242172567608491818 -0.00198999770214598487722002 0.7763265219194029898019949
0.9231757638320187142610962 0.0003315230683300322421687423 0.7771557592363109723265779
0.9184520486595040278388069 -0.01919807521802820854395222 0.7662521631764726004476529
0.9131911698260234411250735 -0.03553321881636489765199372 0.7577530683089742646885156
0.9158374293497584250900445 -0.01898818743714265205868585 0.7707768870412202710795668
0.9090187725846551325403766 -0.03366485640166329978972826 0.7619682325739708383949278
0.9163571070669151996668234 0.01898818743714271450873099 0.7683471047690614286196364
0.9078580121994168639076861 0.03532333103547938280009078 0.7627974698908787098972084
0.9211705869763648912851295 0.0191980752180282675245504 0.7657324854593158258708741
0.9122569886186725485188731 0.03366485640166333448419778 0.7590187725846551103359161
0.922104768183715561846725 -0.01666666666666663521034764 0.7644667811836349802234736
0.9159097081428840825267912 -0.02465701578226656143222328 0.7572333905918174901117368
0.9159097081428840825267912 0.008676317551066769703793646 0.7572333905918174901117368
0.9073383344822600893309072 0.007888917680777440127881661 0.7652272521630376633794413
0.9146766689645203785019589 -0.01076774668803524327709287 0.7716061243581284756487548
0.9073383344822600893309072 -0.02942441105684795790708996 0.7652272521630376633794413
0.741893329970850445853614 0.004276154196827752773657494 0.8123828242259772958178132
0.7337866599417007806849256 -0.01666666666666668725205191 0.8190314070692640280313412
0.741893329970850445853614 -0.02905717913650558009708291 0.8123828242259769627509058
0.7253992413215423207262234 -0.0001081705736501639946974332 0.8255074118951922779174879
0.7251184927305335259362096 0.0004533266083675899097218953 0.8253348338778334625231992
0.7295075877432923849852386 -0.01805132028897486751173318 0.8164276664638798752804405
0.7383065845835961038545747 -0.03378665994170096387172464 0.8104714104317469747229552
0.7247069145103882670255757 -0.001492824195958339632966938 0.8248150850840382242168403
0.7247069145103882670255757 0.001492824195958267208261816 0.8248150850840382242168403
0.7295075877432923849852386 0.01805132028897481893947585 0.8164276664638800973250454
0.7383065845835959928322723 0.03378665994170094999393683 0.8104714104317471967675601
0.7340275123851875971325853 -0.008104817788449233256775628 0.8078676698263629329943569
0.7288152609321382202622885 0.0094931758921579685595038 0.8157353396527258215797929
0.7340275123851875971325853 0.02709116957276519813135884 0.8078676698263629329943569
0.7240145876992342133249281 0.0001081705736500915157822025 0.8241227582728841705161926
0.7244261659193793612132595 -0.0009313270139405857963102453 0.8246425070666794088225515
0.7933138281487202014830018 0.01023787274470312237684144 0.8169240445959831120603667
0.7866276562974399144678728 -0.01666666666666666990481716 0.8234327645210713919610157
0.7933138281487199794383969 -0.02309546058863021569806939 0.8169240445959831120603667
0.7772164328968523827612103 -0.002155780134508401314763493 0.8293722130313605500617768
0.7744913813475449160250719 0.003294322964106639276687938 0.828802941616561428261889
0.7795942710050525192855275 -0.036627656297439969979024 0.816399379228683885756368
0.7672359380814657292546599 -0.0221167697652817005216086 0.821303132010204106627782
0.7629276043383856897861506 -0.036627656297439969979024 0.8148390181326156112007197
0.7701830476044648765565626 0.0221167697652817074605025 0.8223388277389731548794316
0.7602025527890781120277097 0.03548911346784174025703607 0.8142697467178166004231343
0.7795942710050525192855275 0.036627656297439969979024 0.816399379228683885756368
0.7572554432660789647258071 0.005978607722968543904118466 0.8132340509890476631937872
0.764510886532158151496219 -0.01284383907820652731546218 0.8207338605954049848278942
0.7572554432660789647258071 -0.03166628587938159766768109 0.8132340509890474411491823
0.8422040941985088347010446 0.002945341979462887289920037 0.8107412477809539108619674
0.8344081883970175805842473 -0.01666666666666666296592325 0.818676765188239952131255
0.8422040941985088347010446 -0.03038799135387044991762906 0.8107412477809539108619674
0.8244753381716325435490944 -0.003199033784103573301027534 0.8276743719557356770977208
0.8223383937477386496084364 0.001074855063684302834345341 0.8287364613159452497725965
0.8267198217578628494095483 -0.03440818839701763331984097 0.8109883985490853319788584
0.8156045773064569681665148 -0.02094055551445454105286004 0.8222753859808584753210425
0.8100531550911962419547763 -0.03440818839701763331984097 0.8135249299814942824937702
0.8167869715324777013520929 0.02094055551445454799175394 0.8199860053165810569453242
0.8079162106673023480141183 0.03653236711743691744747053 0.8145870193417039661909484
0.8267198217578628494095483 0.03440818839701764719762878 0.8109883985490853319788584
0.8067338164412817258508426 0.01014258356470006290639407 0.8168764000059814955889692
0.8134676328825631852481592 -0.00972311688607018290153583 0.8233374753410682700405232
0.8067338164412817258508426 -0.02958881733684043391363616 0.8168764000059814955889692
0.8752561401808804930624319 2.844320570176428215197761e-05 0.824772303024821074046713
0.8751494024947166217032191 -0.000241918578029852915280834 0.8249074839166867789685966
0.8749872346912550558073463 -8.241702889332583597137988e-05 0.8250696517201483448644694
0.8749318045739574722929888 2.844320570176388912869009e-05 0.8250966386317442058384586
0.8671358609418127194601311 -0.01693702845039830873208331 0.8168939423637828767255087