# geometry NO_DATA 596
#  x  y  z
1.299474624853275805946851 0.04881430836282125984570968 0.7493396835095450514430127
1.29894924970655201157399 -0.01666666666666666990481716 0.7488817790346866676287618
1.299474624853275805946851 0.01548097502948792350552232 0.7493396835095450514430127
1.295174324764071682736244 0.009116816781706000086260566 0.748949249706552189209674
1.291924774968315148271358 -0.02316576625817969373177796 0.749474624853276094604837
1.291924774968315370315963 0.04139939982159169390429909 0.749474624853276094604837
1.299421662963647916555487 -0.04894924970655235851868525 0.7493541922917825726102592
1.295646738021167587717741 -0.04894924970655235851868525 0.7494216629636483162357763
1.295646738021167809762346 0.04894924970655235851868525 0.7494216629636480941911714
1.299421662963647916555487 0.04894924970655237239647306 0.7493541922917825726102592
1.349544443051000186528654 0.04897602171659240499757004 0.7494315786655925126780176
1.349088886102000062194861 -0.01666666666666666296592325 0.7490324539092961808606219
1.349544443051000186528654 0.01564268838325907559627659 0.7494315786655925126780176
1.332968653631693589645124 -0.01557379827394608957924493 0.7485424519056393943827743
1.31730397811038724142918 0.01575555276866636572608016 0.7484515746582793838115322
1.349488802662558883938004 -0.04908888610199969859682056 0.7494323704698553356706725
1.31675754391402688447954 -0.04799601770927912347541877 0.748930538182773997135655
1.332822135995892276483232 -0.04908888610199969859682056 0.7494213319906932735392502
1.333368570192252633432872 0.04799601770927911653652487 0.7489423684661985491928249
1.317157460474585928267288 0.04890713160727942071526186 0.7493304547433330409234031
1.349488802662559105982609 0.04908888610199969165792666 0.7494323704698551136260676
1.300546434196359957269351 0.04877219026354832204228629 0.7493186244599085998885357
1.301092868392720314218991 0.01653172532293556429294767 0.7488396609354138755421104
1.300546434196359957269351 -0.01570873961767719345639094 0.7493186244599085998885357
1.353917891742089318896092 -0.04566161258653536614282586 0.749579504328624524056579
1.35258968937810797328325 -0.01316927059595307189510116 0.7491590086572490481131581
1.353917891742089318896092 0.01932307139462921541372964 0.749579504328624524056579
1.352169193706732608362131 -0.049159008657248953744201 0.7495230721359208425624843
1.352169193706732608362131 0.049159008657248953744201 0.7495230721359208425624843
1.35042049567137589782817 0.04904614427184166014495048 0.7494666399432171610683895
1.350840991342751262749289 0.01655380228125937630556663 0.7491025764645453666190633
1.350420495671375675783565 -0.01593853970932291447271112 0.7494666399432171610683895
1.097933828936809463883151 0.04510150543656977345507997 0.7971676764997603914508773
1.09586765787361883894846 -0.0166666666666666594964763 0.7954845816550945025724673
1.097933828936809463883151 0.01176817210323644925795694 0.7971676764997603914508773
1.093155493364800445732499 0.011242337649029765511699 0.7958676578736190165841435
1.092509499919172455406624 -0.01795865355792247361477187 0.7979338289368095304965323
1.092509499919172677451229 0.04044332885598199422982901 0.7979338289368095304965323
1.097728250044630371462517 -0.04586765787361890556184107 0.7973451738261059240642226
1.095016085535811978246556 -0.04586765787361890556184107 0.7977282500446305490982013
1.095016085535811756201952 0.04586765787361890556184107 0.7977282500446303270535964
1.097728250044630371462517 0.04586765787361890556184107 0.7973451738261057020196176
1.13445936898103605372512 0.0128856625731009234725466 0.7803167956388478154750032
1.142229684490518204498244 0.03067836488747024276113606 0.7873226447492497337421469
1.142229684490517982453639 -0.004907039741268411428554153 0.7873226447492497337421469
1.132743361221654865289565 -0.01831097170871913426548616 0.7816173255739521374962919
1.141335829252163147629062 -0.03445936898103597878506577 0.7883192915576776593766795
1.123847010064470186563312 -0.03385160272768314437819015 0.7901306005126125242554735
1.123847010064470186563312 0.03385160272768315825597796 0.7901306005126125242554735
1.132743361221654865289565 0.01831097170871916895995568 0.7816173255739522485185944
1.141335829252163369673667 0.03445936898103600654064138 0.7883192915576776593766795
1.125866900950527771385623 -0.0005182693943497960033586769 0.7736148296551222935946157
1.125044748429501417774645 0.001126035647702685812965306 0.7739187127817986899813718
1.116148397272316739048392 0.01590051422961755167584386 0.7824319877204588546959485
1.108074198636158413933117 0.03308545029063402614921685 0.7906413795324427340460716
1.108074198636158413933117 -0.001284421831398940578444767 0.7906413795324427340460716
1.188614533032742892615374 0.005586551190867417721053201 0.7725120758960239975010609
1.194307266516371424103227 0.02753441755694380904673224 0.7779459513411626225831697
1.194307266516371424103227 -0.01636131517520893891015632 0.7779459513411627336054721
1.182835949627195848421479 -0.02395422936778479616748427 0.777554749927786170715649
1.19217246446138358528799 -0.03861453303274305776104924 0.7813512070240742346527441
1.171862016444157550409955 -0.03533969633504173424309869 0.7866381810640415972457617
1.171862016444157550409955 0.0353396963350417481208865 0.7866381810640415972457617
1.182835949627195848421479 0.02395422936778478575914342 0.777554749927786170715649
1.192172464461383363243385 0.03861453303274303694436753 0.7813512070240740126081391
1.179278018198555599838073 -0.002006363001708429995295635 0.7687156187997361556085707
1.175634236847996394459415 0.005281199699409715349329719 0.7703530371485867167535844
1.164660303664958318492495 0.01288566257310092867671703 0.7794364682848421432836972
1.157330151832479225859629 0.03155869224147599128027508 0.7868824810722467866241914
1.157330151832479225859629 -0.005787367095274155610884481 0.7868824810722468976464938
1.24714542345510004395237 -0.01100810661028112091841535 0.7556838565730927825825347
1.248572711727550021976185 0.01947065017815236692699798 0.7570858483288357421159276
1.248572711727550021976185 -0.04148686339871447692484452 0.7570858483288356310936251
1.231839942458889947118905 -0.0360517957947452741263028 0.7680278523371228960314738
1.242959795295379032964433 -0.04714542345510014387244269 0.7653103185351383119794377
1.216600564064673317687948 -0.03890637233964512609052377 0.7777271729934401855999226
1.216600564064673317687948 0.03890637233964509833494816 0.7777271729934401855999226
1.231839942458889947118905 0.03605179579474512840953082 0.7680278523371231180760788
1.242959795295379032964433 0.04714542345510003285014022 0.7653103185351386450463451
1.236025570618610958106842 -0.005573039006311918119873638 0.7584013903750773666345708
1.226333006054571628240524 0.0138120901217666652849303 0.7625209159328047991976973
1.211093627660354998809566 0.005586551190867418588414939 0.7722202365891220887661461
1.205546813830177477200323 0.02782625686384588431510068 0.777800031687711612704561
1.205546813830177477200323 -0.01665315448211101417852475 0.7778000316877117237268635
1.267144914687773571415619 -0.04714999276968723923575411 0.7542531729635872927985929
1.254253172963587292798593 -0.0471499927696872322968602 0.7570824529917801193334981
1.254253172963587292798593 0.04714999276968712127455774 0.7570824529917805634227079
1.267144914687773793460224 0.04714999276968712127455774 0.7542531729635875148431978
1.277208487063528963290082 -0.02136650932131457097939986 0.7514250036151564060560304
1.265741748954499090729087 0.009116816781705875186170296 0.7528500072303128121120608
1.277208487063529185334687 0.03960014288472644278238377 0.7514250036151564060560304
1.252850007230312812112061 -0.01100810661028112785730926 0.755679287258505638646966
1.25142500361515640605603 0.0194752194927394484125216 0.7570835636715421701481432
1.25142500361515640605603 -0.04149143271330156534926203 0.7570835636715420591258408
1.395020098500002747599069 -0.006678220357255189310041743 0.7599741246547029316360522
1.397510049250001440412916 0.02167521147608078568858048 0.7624783970594100068751686
1.397510049250001218368311 -0.03503165219059126145317862 0.7624783970594100068751686
1.382592080618691543492105 -0.04502009850000263796454547 0.7574841739047042388222053
1.382592080618691543492105 0.04502009850000274204795403 0.7574841739047042388222053
1.380102129868692850678258 -0.0166666666666665658214086 0.7549799014999971635830889
1.367674111987381646571293 -0.01814917209595033262270469 0.7524899507499985817915444
1.367674111987381646571293 0.01518416123738299677858876 0.7524899507499985817915444
1.43691839678979516037316 0.01002624010710140983748673 0.7764280565970890224392065
1.443459198394897669004422 0.0302779702302296734039988 0.7832337083788705189846269
1.443459198394897224915212 -0.01022549001602688668877139 0.7832337083788705189846269
1.418278121013516690496203 -0.03171850168694784893874683 0.7646930575570550780994949
1.432344840128759955177884 -0.03691839678979493000188228 0.775439563392515518458481
1.408152255951952591672693 -0.04480010489715292171242211 0.7631464791066582264988938
1.408152255951952591672693 0.04480010489715302579583067 0.7631464791066582264988938
1.418278121013516690496203 0.031718501686947980777731 0.7646930575570550780994949
1.432344840128759955177884 0.0369183967897949716352457 0.775439563392515518458481
1.422851677674551895691479 -0.01146677156381955414721219 0.7656815507616285820802204
1.415325760164411139641061 0.003585063456461726368040832 0.7617406967079496382666548
1.405199895102847040817551 -0.006678220357255189310041743 0.7601941182575526756437512
1.402599947551423698044459 0.02145521787323106943645712 0.7625883938608347678567156
1.402599947551423475999854 -0.03481165858774154520105526 0.7625883938608348788790181
1.480185945773771383215944 0.009447589409449385147721223 0.7792616436356777365190851
1.484678664943972936640648 -0.0004621510690470930220359602 0.7842165138749260799855278
1.488103115023049927145848 0.007311051227200450128296261 0.7927809227427827787337833
1.487034845931925364226345 -0.01880320484891559798534821 0.7963904613713914670825034
1.487034845931925364226345 0.03342530730331677579769689 0.7963904613713914670825034
1.479015606648901748343405 -0.0117882676591890799000506 0.7785534555798550027105875
1.47045119778104504959515 -0.02799278325680893200755328 0.7837976511679292102030558
1.475045986984991674972889 -0.04278092274278298690060041 0.7930702480916087537821113
1.47045119778104504959515 0.02799278325680867873792579 0.7837976511679289881584509
1.475045986984991674972889 0.04278092274278272322263206 0.7930702480916087537821113
1.479015606648901748343405 0.01178826765918883009987006 0.7785534555798548916882851
1.474522887478700639007911 -0.001878527180692603736067436 0.7735985853406066592441448
1.473352548353831004135372 0.0004621510690468426255442247 0.7728903972847837033910423
1.464788139485973861297907 0.01002624010710139942914587 0.7781345928728580219058131
1.457394069742986797422191 0.0285714339544606739373922 0.7840869765167550742290814
1.457394069742986797422191 -0.008518953740257899365229122 0.7840869765167550742290814
1.037250813697445872563208 0.006785655582775024230457461 0.824475347427274685152554
1.043625406848722736441459 0.0273698026135543760750668 0.8298269154007185122168266
1.043625406848722736441459 -0.01379849144800435536972749 0.8298269154007186232391291
1.03581600847765153972091 -0.006784421155695418911846239 0.8426004296333472476376869
1.029007359788804754074931 0.01174977144433239986676121 0.8352008592666944064575318
1.03581600847765153972091 0.03028396404436023425787994 0.8426004296333472476376869
1.033996199274261451606094 -0.02128457809623509472407576 0.8300787189101488383613514
1.04267974814032271524411 -0.03725081369744601134108564 0.8338217622342642965094228
1.031103696125524438187426 -0.01923462366548357033169125 0.8329712220588857407577166
1.037328797380418610174502 -0.03520085926669448694870113 0.8416547709249471154180355
1.031103696125524438187426 0.01923462366548356339279735 0.832971222058885851780019
1.037328797380418610174502 0.03520085926669449388759503 0.8416547709249471154180355
1.033996199274261451606094 0.02128457809623512247965138 0.8300787189101488383613514
1.04267974814032271524411 0.03725081369744605297444906 0.8338217622342641854871204
1.028567264831384608925191 -0.0007004310654557162080929844 0.820732304103159338026785
1.026258309116600431210031 0.003917480364112707960644322 0.8223408287524878179652887
1.023365805967863417791364 0.001867525933361147139066816 0.8252333319012247203616539
1.022782258533910582087856 -0.0007004310654557509025625039 0.8265173104006331428195153
1.080077788867145116569191 -0.03923731569970738408681399 0.8161232867092970133526819
1.066123286709296680285775 -0.03923731569970738408681399 0.8278494478340177042952064
1.066123286709296680285775 0.03923731569970744653685912 0.8278494478340174822506015
1.080077788867144894524586 0.03923731569970744653685912 0.8161232867092966802857745
1.083290346465842768353127 -0.01132831138401096428280912 0.805381342150146339875505
1.074717186458140627536295 0.01124233764902981061450937 0.8107626843002926353420889
1.083290346465842546308522 0.03381298668207054214374097 0.8053813421501462288532025
1.060762684300292413297484 0.006785655582775041577692221 0.8224888454250134373069159
1.0553813421501461178309 0.02935630461581577310692381 0.8288336643995878327828564
1.0553813421501461178309 -0.0157849934502657315849028 0.8288336643995879438051588
1.495884272988670105064557 -0.008263825299651743339079957 0.8083171476948374234439143
1.497942136494335052532278 0.02095378102235189582414066 0.810460704872680404164953
1.497942136494335274576883 -0.03748143162165516739658955 0.810460704872680182120348
1.493264328774602356375567 -0.04588427298867030212914386 0.8062592841891724759761928
1.493264328774602134330962 0.04588427298867009396232675 0.8062592841891726980207977
1.491206465268937408907846 -0.01666666666666688501052818 0.8041157270113298283220615
1.488586521054869216129646 0.003195324215870813666651173 0.8020578635056649918766425
1.488586521054869216129646 0.03652865754920414653739158 0.8020578635056649918766425
1.535486649764544520024856 0.01352402828756468951276748 0.8296086977125712857983331
1.542743324882272171194586 0.03234401138544250320361328 0.8374473700719591295893451
1.542743324882272171194586 -0.005295954810313108565567042 0.8374473700719591295893451
1.517462991162132901479254 -0.03095646390495332411774143 0.8153096747309218628174676
1.531864564899003910980468 -0.03548664976454447839149253 0.828139929278241870846955
1.508052999613193723149607 -0.04546981414040884850180646 0.8122544202967016957472879
1.508052999613194389283422 0.04546981414040862645720154 0.8122544202967022508588002
1.517462991162133123523859 0.0309564639049530881953487 0.8153096747309220848620726
1.531864564899004133025073 0.03548664976454447145259863 0.8281399292782420928915599
1.521085076027673510523641 -0.01213648080707552430468343 0.8167784431652511667465433
1.513940177408530374236761 0.002153316431210904827869834 0.8117868609773191135303705
1.504530185859591195907115 -0.008263825299651753747420813 0.8087316065430989464601907
1.502265092929795819998162 0.02053932217409042831901544 0.8106679342968111656730912
1.502265092929795375908952 -0.03706697277339369989146434 0.8106679342968107215838813
1.562591975976719282925842 -0.03232800184922286768074429 0.8449199778259421922399497
1.56391602124944650853422 -0.009154712864005213474039024 0.8398399556518842956620574
1.562591975976719282925842 0.01401857612121252573411656 0.8449199778259420812176472
1.558835999075388389911723 -0.03983995565188439696990841 0.8433486586363911907682223
1.558835999075388389911723 0.03983995565188432064207547 0.8433486586363910797459198
1.555080022174057718942208 0.03669731727278235933198403 0.8417773394468400782741924
1.560160044348115615520101 0.01352402828756462185855192 0.8382686364623334052126324
1.555080022174057718942208 -0.009649260697653028878706394 0.8417773394468401892964948
1.040599831559267274272429 -0.00149728376184424943895479 0.8920971153211114668124537
1.032154242797966192668468 0.01603028021371217040624835 0.8841942306422228003981445
1.040599831559267274272429 0.03355784418926859025145149 0.8920971153211114668124537
1.037697767426186246098041 -0.03504473003745652015528123 0.873489548370686819112052
1.031392433049575174663914 -0.019238960679679603660297 0.8822533303584649821971198
1.040263271508492959327441 -0.03419423064222308628057334 0.8914423620438599593640561
1.031392433049575174663914 0.01923896067967961059919091 0.8822533303584649821971198
1.040263271508492959327441 0.03419423064222308628057334 0.8914423620438599593640561
1.037697767426186246098041 0.03504473003745652709417513 0.873489548370686819112052
1.0358940730922707729178 -0.006628291926457444312170697 0.8574776349812716080833752
1.029163489018042998424107 0.01174977144433241027510206 0.8649552699625433493935134
1.0358940730922707729178 0.03012783481512226746446004 0.8574776349812716080833752
1.022858154641431926989981 0.0008608973088897573129607554 0.8737190519503215124785811
1.023283404339048630049547 -0.001711396704123182297210826 0.8750051989568279342535106
1.588588447773243927940712 0.006809509754509485320028706 0.8731496404373446651447921
1.594294223886622008379277 0.02873129086108633725715755 0.8791819525345543340222321
1.594294223886622008379277 -0.01511227135206735447403581 0.8791819525345543340222321
1.581383534121285849849414 -0.03858844777324352270930774 0.867443864323966362661622
1.581383534121285849849414 0.03858844777324350883151993 0.867443864323966362661622
1.575677758007907769410849 -0.01666666666666667684371106 0.8614115522267564717395771
1.568472844355949913364157 -0.02056626509076162762079676 0.855705776113378391301012
1.568472844355950357453366 0.0127670682425717087193906 0.8557057761133781692564071
1.630746578240711786023098 0.01023965599752878728734284 0.8794930777568170654490132
1.635553031118502476104482 -0.0006267502419474331454285476 0.8849262808765552268397414
1.638763671734534188573207 0.007048031474010220572001817 0.893572989330862044177195
1.637167859472774766871339 -0.01985829119018522881390254 0.8967864946654310331908277
1.637167859472774766871339 0.03395435413820580006216687 0.8967864946654309221685253
1.628654689307857061919549 -0.01442343386323824416805905 0.8780279390659098126548088
1.620007980853549911515188 -0.03046335028795760235809098 0.8817460690641381049204028
1.625310510402436126042858 -0.04357298933086223985400309 0.8918579162093523970966658
1.620007980853549911515188 0.03046335028795746704965985 0.8817460690641381049204028
1.625310510402436126042858 0.04357298933086212883170063 0.8918579162093525081189682
1.628654689307857061919549 0.01442343386323810885962793 0.8780279390659098126548088
1.623848236430065927748956 -0.003557027623762023735287663 0.8725947359461716512640805
1.621756347497211425690011 0.0006267502419472995717208974 0.8711295972552642874475737
1.61310963904290471937486 0.006809509754509482717943492 0.8748477272534925797131677
1.606554819521452515118654 0.02703320404493817635804831 0.8800309959426284578398736
1.606554819521452515118654 -0.01341418453591919530965004 0.8800309959426284578398736
1.048396472416248670356254 -0.01570255321335750631206452 0.9020855843104058635617548
1.049198236208124246360285 0.01602725253622449066992495 0.9017658772451847548623505
1.049198236208124246360285 -0.04743235896293949982460703 0.9017658772451847548623505
1.048880042981647164879178 -0.04839647241624867035625357 0.9012838205185300655131186
1.048880042981647164879178 0.04839647241624867035625357 0.9012838205185300655131186
1.048078279189771588875146 -0.01666666666666666990481716 0.9016035275837512852348254
1.048561849755169861353465 0.01442675262996082410915655 0.9008017637918755982084917
1.048561849755169861353465 0.04776008596329416044934391 0.9008017637918755982084917
1.088688142435140449038045 -0.004070586056935675961510057 0.9427587284920760923867533
1.08020597847945598601882 0.01478020426055030520084976 0.9355174569841524512270325
1.08868814243514067108265 0.03363099457803629677155044 0.9427587284920760923867533
1.072964706971532233836797 -0.03551745698415265800607088 0.9265741185520639522366082
1.072964706971532233836797 0.03551745698415265800607088 0.9265741185520641742812131
1.057241271507923574546339 0.003148237104128483957593554 0.910389508612052034131068
1.064482543015847326728363 -0.01570255321335750631206452 0.9193328470441404220991899
1.057241271507923574546339 -0.03455334353084349441331824 0.910389508612052034131068
1.645583654744298351957354 -0.007600649434363259022984227 0.9089493538718533827136525
1.647791827372149242592059 0.02131633864326833854851984 0.9112741898601545154079417
1.647791827372149464636664 -0.03651763751199475771525016 0.9112741898601541823410344
1.642982509775821053921163 -0.04558365474429826313951253 0.9067411812440024920789483
1.642982509775821053921163 0.04558365474429817987278568 0.9067411812440027141235532
1.640774337147970385331064 -0.01666666666666676357988486 0.9044163452557016924515665
1.638173192179492865250268 0.002631686218308511293617613 0.9022081726278508018168623
1.638173192179493087294873 0.03596501955164184416435802 0.9022081726278508018168623
1.68496574919187769303619 0.01508842058187624332599164 0.9309117944323933580008656
1.692482874595938824313635 0.03338750310708742119469861 0.9392722126526036330318448
1.692482874595938824313635 -0.003210661943334936711119676 0.9392722126526038550764497
1.669651334509173468134691 -0.02999965878723227091784409 0.9180189186506286791455977
1.683834955973517510940951 -0.03496574919187785124297108 0.9314134170725776318278122
1.660501793246567991957363 -0.04503390959535442938932448 0.9150348018627193491525418
1.660501793246568214001968 0.04503390959535433224480983 0.9150348018627196822194492
1.669651334509173468134691 0.02999965878723217030388248 0.9180189186506286791455977
1.683834955973517288896346 0.03496574919187785124297108 0.9314134170725774097832073
1.67078212772753365022993 -0.01170057626202109131441365 0.9175172960104445163409537
1.664115631667251182790324 0.001632415858544404964683427 0.9124832158087063938012307
1.654966090404645706612996 -0.007600649434363270298686821 0.9094990990207971748304772
1.652483045202322919919879 0.02076659349432449092054398 0.9115490624346263004440516
1.652483045202322919919879 -0.03596789236305092396506211 0.9115490624346259673771442
1.705284209377125215212345 -0.04273187741186944277327342 0.9480160867889946274544855
1.705617974505070577606602 -0.01336637050054703679258239 0.946032173577989077273287
1.705284209377125215212345 0.01599913641077545939372939 0.9480160867889942943875781
1.703634061294065249470009 -0.04603217357798916609112894 0.9472269637465995373304395
1.703634061294065249470009 0.04603217357798906894661428 0.9472269637465990932412296
1.701983913211005283727673 0.04445392749319865277612962 0.9464378407042037810725787
1.703967826422010833908871 0.01508842058187615138564741 0.9452430505355937651046361
1.701983913211005283727673 -0.0142770863294462563297671 0.9464378407042041141394861
1.096510871236305861842197 -0.01542162737075768522143626 0.9541116484116481943900112
1.098255435618153086352322 0.01442257719888154557374982 0.9529896036777556478369888
1.098255435618152864307717 -0.04526583194039708601952299 0.9529896036777556478369888
1.097312204415094694098798 -0.04651087123630588682221543 0.9523670840298013029467938
1.097312204415094694098798 0.04651087123630607417235083 0.9523670840298011919244914
1.095567640033247691633278 -0.01666666666666648949357565 0.9534891287636938494998162
1.096368973212036523889878 0.01129107549685638700598389 0.9517445643818467360119939
1.096368973212036745934483 0.04462440883018971293783039 0.9517445643818467360119939
1.148651080238127342170174 0.04222958878282796757464013 0.9935785085447005338110671
1.147302160476254773158189 -0.01666666666666694746057331 0.9947658746295415799210105
1.148651080238127342170174 0.008896255449494636438623196 0.9935785085447008668779745
1.13823070334911169432246 -0.001476247587619392790531103 0.9897069509367307782454759
1.130508165983841628587925 0.01396882714292114330278949 0.9834606611590795965938128
1.143217312794275963838686 -0.04730216047625473985149824 0.9906810269475627706015075
1.122912956444317877924277 -0.03211174139720718301305169 0.9750117236798911957151859
1.126550646127609356383914 -0.04730216047625473985149824 0.9771731657755635680473461
1.134145855667132218869142 0.03211174139720692627397725 0.9856221032547509697252508
1.118828108762338180426354 0.03480958092095246675379272 0.9709268759979116092395657
1.143217312794274853615661 0.04730216047625446923463599 0.9906810269475615493561804
1.10759520953952383948149 0.002721286883527932951021278 0.9603164964230515021625934
1.115190419079047590145137 -0.01542162737075785002016648 0.9687654339022400140635227
1.10759520953952383948149 -0.03356454162504363819552466 0.9603164964230515021625934
1.156455808332871315613488 -0.04230028721932159452290279 0.9987560955521926908673436
1.155093760838146632607959 -0.01145476278160296665364903 0.9975121911043853817346871
1.156455808332871537658093 0.01939076165611592489357307 0.9987560955521926908673436
1.153849856390339212453 -0.0475121911043855510436984 0.9962198097054797418792305
1.15384985639033965654221 0.04751219110438530124351786 0.9962198097054792977900206
1.151243904447807331337117 0.0424396194109588134613098 0.9936835238587660157350001
1.152487808895614751492076 0.0115940949732399149751938 0.9949759052576722107019691
1.151243904447807331337117 -0.01925142946447871983295386 0.9936835238587665708465124
1.736849015009255037256253 0.01058529689908829785061073 0.9767769667736221350651249
1.743424507504627740672731 0.03076764524167680675548198 0.9838274560611273145127598
1.743424507504627740672731 -0.00959705144350021452370747 0.9838274560611270924681548
1.728407988921020876915691 -0.0368490150092551718707945 0.9702014742782496536932513
1.728407988921020654871086 0.0368490150092551788096884 0.9702014742782496536932513
1.721832496425648173499212 -0.01666666666666666296592325 0.9631509849907446962902213
1.71339147033741356906944 -0.02651735549129176708338385 0.9565754924953724369629526
1.71339147033741401315865 0.006815977842041567522080037 0.9565754924953722149183477
1.776385797798037957662132 0.002436402273107202490209922 0.9760506044750694165657023
1.777520200603849298559567 -0.0001675966614842075777525032 0.9773526039423652278514965
1.775666541751889315747803 -0.003539721042435264950626328 0.9857697356064405447284571
1.77267848009411821408321 -0.02264278998220910915639692 0.9928848678032201613419261
1.77267848009411821408321 0.01556334789733856450999472 0.9928848678032201613419261
1.775839123528702545584679 -0.003529750811777631995524995 0.9756715268672182528320036
1.767421991864627006663113 -0.02002882081696006830173751 0.9810479736475046230737007
1.766115007282002657973408 -0.03576973560644049199286343 0.9898441829194309926620576
1.767421991864627006663113 0.02002882081696011340454788 0.9810479736475046230737007
1.766115007282002657973408 0.03576973560644051974843904 0.9898441829194309926620576
1.775839123528702545584679 0.003529750811777694011889261 0.9756715268672184748766085
1.774704720722890982642639 -0.0009257518771862224696636567 0.9743695273999226635908144
1.774158046453555792609791 0.0001675966614842694314864435 0.9739904497920717219017206
1.765740914789480253688225 0.01058529689908830825895159 0.9793668965723579811211152
1.757870457394740348888718 0.02817771544294122437745997 0.9851224209604951820296037
1.757870457394739904799508 -0.007007121644764620002621136 0.9851224209604950710073012
1.194280022082353287515843 0.01703211235358036840237261 1.022752090271226821371897
1.188560044164706841485213 -0.01666666666666662827145373 1.027796078259143541799858
1.194280022082353287515843 -0.0163012209797529714072617 1.022752090271226599327292
1.179824684755089947429951 -0.0008040521525672587183075635 1.030628736907657216903544
1.17680930326311949940532 0.005226710831373758761597692 1.028417407568254171579269
1.165069065268853343297906 -0.03552719501010460217971243 1.01246311332632132895526
1.180219307358218561176955 -0.0385600441647070482642512 1.016849389510123380375717
1.170394420583370953536928 -0.01966458049600524476963059 1.021198472735938445055126
1.170394420583371175581533 0.01966458049600498109166224 1.021198472735938667099731
1.165069065268853787387116 0.03552719501010433850174408 1.012463113326321550999864
1.180219307358219005266164 0.03856004416470709683650853 1.016849389510123380375717
1.156728328462365062989647 -0.04175524696033359323132927 1.001516424577301167531118
1.155638801097134571449487 -0.01145476278160301869535331 1.003032849154602557106841
1.156728328462365507078857 0.01884572139712787502974223 1.001516424577301389575723
1.160964156411652403733115 0.000804052152566995474020084 1.011768208564219451162103
1.167379039091400505512297 -0.01363381751206422555500186 1.018987143396535177686246
1.227946607937187906145482 -0.0167704839472081201900977 1.044717091884395987477774
1.221897666141999572175791 0.005997033154917726788246668 1.039434183768792152591232
1.227946607937187906145482 0.02876455025704352519433371 1.044717091884395987477774
1.216614758026395737289249 -0.03943418376879247178035115 1.033953125978832598974577
1.216614758026395737289249 0.03943418376879252035260848 1.033953125978832598974577
1.205282908115603568433016 0.01790625195766579191847256 1.023189160073269210471381
1.210565816231207181274954 -0.00486126514446000995706143 1.02867021786322898613264
1.205282908115603568433016 -0.02762878224658586040485275 1.023189160073269210471381
1.790850090964078988875485 0.003325623202727361147484908 1.019146053970617860073844
1.795425045482039516642203 0.02750904750013948713016632 1.024567244387354358892139
1.795425045482039516642203 -0.02085780109468475876366433 1.024567244387354358892139