# geometry NO_DATA 872
#  x  y  z
1.245847600705410229693371 0.02522934060737304709509665 0.5793817399019626224188073
1.241695201410820681431346 -0.01666666666666666296592325 0.5834622710090969777141368
1.245847600705410229693371 -0.00810399272596028751036723 0.5793817399019626224188073
1.231223964653120894752192 -0.004275806848732758604081372 0.5916952014108209922937931
1.224905127190010878379667 -0.02930434159288697326672946 0.5958476007054105405558175
1.224905127190010878379667 0.02075272789542145779329019 0.5958476007054104295335151
1.237613145349838017494903 -0.04169520141082087849593307 0.5793802149481144247999964
1.227141908592138452860354 -0.04169520141082087849593307 0.5876131453498383283573503
1.227141908592138452860354 0.04169520141082089237372088 0.5876131453498382173350478
1.237613145349838017494903 0.04169520141082087849593307 0.5793802149481144247999964
1.293646868354405121692707 0.01195737974821108745571152 0.5683105113938060615197401
1.287293736708809976931889 -0.01666666666666666296592325 0.5746255582285104690498656
1.293646868354405121692707 -0.02137595358512224888447584 0.5683105113938060615197401
1.274800382597974568454902 -0.008320041555004160926944934 0.5831204241529787113407224
1.268660160132734304738733 0.003960403375476645795871811 0.5853002432427424350791512
1.281023584804831028094441 -0.03729373670880996305410093 0.5683554063245317422570224
1.264486847576902883716343 -0.02894711159714746795401652 0.5812406253968498415218846
1.264356918138164420639669 -0.03729373670880996305410093 0.5727906544031072799683102
1.268530230693995841662058 0.02894711159714747489291042 0.5768502722489998735255767
1.2582166956729241569235 0.04165337488833750767547315 0.574970473492871003706739
1.281023584804831028094441 0.03729373670880997693188874 0.56835540632453163123472
1.254173312555831198977785 0.02518751408488967280518978 0.5793608266407208606807444
1.258346625111662620000175 0.0002008058632188408079103509 0.5834204444866135652603134
1.254173312555831198977785 -0.02478590235845199579722831 0.5793608266407209717030469
1.34330948760691537557932 0.01009580532240470299165658 0.5667863177154893739029262
1.336618975213830662340797 -0.01666666666666665602702935 0.5733573902681176059914492
1.34330948760691537557932 -0.02323752801092862987908383 0.5667863177154893739029262
1.326386579591871450745089 -0.003798124577251442771097523 0.5801847041691229334148261
1.322844696362996952387903 0.003285641880497268581262649 0.5804409455175001397719825
1.330109073427129917632783 -0.03661897521383059017630046 0.5668474884814169723057375
1.316410425318289334484234 -0.02375043312441537518564516 0.5742070380819082053847069
1.313442406760463310178011 -0.03661897521383059017630046 0.5674408949468304763641413
1.319876677805170928081679 0.02375043312441538906343297 0.5736748023824224107514169
1.30990052353158903386543 0.03713145791058479472379616 0.5676971362952075716989953
1.330109073427129917632783 0.03661897521383060405408827 0.5668474884814169723057375
1.306434271044707440267985 0.01179510094998590177817199 0.5682293719946934773545877
1.312868542089415058171653 -0.008669690293932217836636589 0.5744632794302853007195608
1.306434271044707440267985 -0.02913448153785034092089212 0.5682293719946934773545877
1.393757258364101803138624 0.01302182824111508714637342 0.5692645698770132378641051
1.38751451672820325100588 -0.01666666666666666296592325 0.5752681724846593347422186
1.393757258364101803138624 -0.02031150509221824745909046 0.5692645698770132378641051
1.377591075590609115408824 -0.003180215608522453905881999 0.5807712911991315118953594
1.373910376088912643766093 0.004181183394870240446761223 0.5802708073059574811480843
1.38154404593987512051001 -0.03751451672820356464388425 0.5692977016963310932240461
1.367167150559840615997587 -0.02402806567005935645120474 0.5737524478893167856341506
1.364877379273208735099843 -0.03751451672820356464388425 0.5682824609941624638409507
1.371620604802280762868349 0.02402806567005936339009864 0.5748008204108032703771869
1.361196679771512485501717 0.03651354894185579458287805 0.5677819771009884330936757
1.381544045939875342554615 0.03751451672820357158277815 0.5692977016963310932240461
1.356743225529071894541744 0.009990379050429898724616784 0.5667336045795019483506394
1.363486451058144144354856 -0.009856503224759227688167584 0.573251963996142865909178
1.356743225529072116586349 -0.02970338549994834889678152 0.5667336045795019483506394
1.446023174301195979296608 0.02684978693800180865602911 0.5808266126368061277318589
1.442046348602391336868322 -0.01666666666666666296592325 0.584448067770196644232783
1.446023174301195979296608 -0.006483546395331525082073032 0.5808266126368061277318589
1.431626908888720350887525 -0.004172212760675751350158968 0.5857991216493960706657163
1.425184294873853563245802 0.008713015269058127509893552 0.5835287203952048695754229
1.438392379039100887894165 -0.04204634860239146038063396 0.5807940982069063062809278
1.418937067920857941771828 -0.0295518946964005470301462 0.577529603104655953060842
1.421725712372434502483998 -0.04204634860239146038063396 0.5761460347955569272215826
1.427972939325429901913367 0.02955189469640055049959315 0.5821451520861056216915586
1.415283098357567492797671 0.03750554609400908595562285 0.5738756335413657261312892
1.43839237903910110993877 0.04204634860239146038063396 0.5807940982069063062809278
1.406247226952995754700737 0.01301285760692060672338854 0.5692600845599160575005726
1.412494453905991154130106 -0.007826021820421818001034531 0.5752592018504648629928511
1.406247226952995532656132 -0.02866490124776423925601065 0.5692600845599160575005726
1.473934156352150193214356 -0.02216449866362927428875551 0.5960986550157796326487869
1.4678190956524057586563 0.003366144701263108079958286 0.5921973100315591764797318
1.473934156352150193214356 0.02889678806615549044867208 0.5960986550157795216264844
1.463917750668185302487245 -0.042197310031559048804084 0.5885003741835848067864845
1.463917750668185302487245 0.0421973100315590557429779 0.5885003741835848067864845
1.453901344984220411760134 0.02700074836716940401837306 0.5809020933513899809241821
1.457802689968440867929189 0.001470105002277019264414482 0.5845990291993642395951269
1.453901344984220411760134 -0.02406053836261537459684234 0.5809020933513899809241821
0.9977788247421562894956537 0.03812465788850950138000329 0.6403458331463531827409952
0.9955576494843128010359123 -0.01666666666666666296592325 0.6418411536864111477385109
0.9977788247421562894956537 0.004791324555176166774539404 0.6403458331463530717186927
0.9895283422674332474144876 0.004608052232907678021078812 0.6455576494843127122180704
0.9857202103083972932751067 -0.0242829305847384047112314 0.6477788247421563117001142
0.9857202103083972932751067 0.03349903505055376595755945 0.6477788247421563117001142
0.9944689244451494491983112 -0.04555764948431274830031867 0.6407524286472476848786073
0.9884396172282698955768865 -0.04555764948431274830031867 0.6444689244451493603804693
0.9884396172282698955768865 0.04555764948431276217810648 0.6444689244451493603804693
0.9944689244451493381760088 0.04555764948431274830031867 0.6407524286472479069232122
1.046934936537199156703082 0.03356216077592955038255695 0.6366272242387301938393307
1.043869873074398491041848 -0.01666666666666666296592325 0.6387160169251641095300442
1.046934936537199156703082 0.0002288274425962163462992122 0.6366272242387303048616332
1.029443996890341272987257 -0.01218508570144763783482666 0.6416290825917890794372056
1.018083184169084720593901 0.01053653974106528654064441 0.6424533555719802446759559
1.041731139917025483754287 -0.04386987307439860900304396 0.6365772837677912132647862
1.015842393686475331193719 -0.03938829210917958734139432 0.6409776502566881806188803
1.025064473250358876299515 -0.04386987307439860900304396 0.638014644119124119114872
1.027305263732968487744301 0.03938829210917960121918213 0.6394903494344161831719475
1.013703660529102545950764 0.04551841903478098805280183 0.6388389170993153953759247
1.041731139917025483754287 0.04386987307439861594193786 0.6365772837677912132647862
1.002240790482609389400181 0.03808542743897773419359254 0.6403262179215873928228575
1.004481580965218778800363 0.009233675070863422984501767 0.6418019232368794568799331
1.002240790482609389400181 -0.01961807729725089169403596 0.6403262179215871707782526
1.094010217374124405154134 0.01550656013087717451093273 0.6214963427567528064798807
1.088020434748248721490427 -0.01666666666666666296592325 0.6267634974395631664023654
1.094010217374124405154134 -0.01782677320245616009453116 0.6214963427567528064798807
1.074218181854254883234034 -0.01093783912132079323697997 0.6351560209755761077232705
1.06640571158613672864135 0.004687101414915526356730346 0.6382813898287786891216911
1.082577223322105597347331 -0.03802043474824885749274728 0.6213202860134199312369674
1.06354129781346395944297 -0.03229160720290298602908052 0.6359919474522169879904254
1.065910556655438989892559 -0.03802043474824885749274728 0.6274233671728712824489094
1.068774970428111759090939 0.03229160720290299296797443 0.6297128095494327615355701
1.05809808638732061325527 0.04427117245465413131189081 0.6305487360260737528250274
1.082577223322105597347331 0.03802043474824887137053508 0.6213202860134199312369674
1.052864413772672591562696 0.0339634601561850657525099 0.6368278739288579792798828
1.055728827545345804850285 0.006358954368197598273904081 0.639117316305419569388846
1.052864413772672813607301 -0.02124555141978986053108436 0.6368278739288580903021852
1.142339863707421132588138 0.004341387139110319988433151 0.6120015234316895647026513
1.134679727414841909904908 -0.01666666666666667337426411 0.6195105572769761259621646
1.142339863707421132588138 -0.02899194619422301721911595 0.6120015234316895647026513
1.123819101822836508119963 -0.005054584517343957590640446 0.6288736863401804821904761
1.120618612523410329018247 0.001346394081508375459299565 0.6307277815580981661369719
1.127147265586311064566871 -0.03467972741484171700365735 0.6119780954484451696018255
1.114812571448748901303816 -0.02306764526551900035267195 0.6252768853240737723098164
1.110480598919644013022889 -0.03467972741484171700365735 0.6158903282776249099583765
1.116286639994305440737321 0.02306764526551899341377805 0.6213412245116494148078345
1.107280109620217833921174 0.03838791785067728612457216 0.6177444234955427049271748
1.127147265586310842522266 0.03467972741484171006476345 0.611978095448445058579523
1.105806041074661294487669 0.01587404323330559099969328 0.6216800843079670624291566
1.111612082149322722202101 -0.005847207950705026954785204 0.6271309805419914562563122
1.105806041074661294487669 -0.02756845913471564490926369 0.6216800843079670624291566
1.191932535321684083484683 0.001406332416558071611578651 0.6094737970948740368726249
1.183865070643368433422893 -0.01666666666666666990481716 0.617635701529963387912403
1.191932535321684083484683 -0.03192700091677526386124697 0.6094737970948740368726249
1.174899497666507919291234 -0.001264479287054141734905621 0.6261639769535621846685558
1.174001389367963277265972 0.0005317373100350025619600935 0.6265303479420716303849304
1.175901163649766933971819 -0.03386507064336833489059941 0.6096717945363617774390264
1.166300295678157183942858 -0.01846288326375581170801787 0.6190622714940122728322081
1.159234496983100548561652 -0.03386507064336833489059941 0.6107319935119013276647593
1.166935590672906641884765 0.01846288326375581517746483 0.618200069959960796239784
1.158336388684555906536389 0.03459781262038748306242297 0.6110983645004108844034363
1.175901163649767156016424 0.03386507064336834182949332 0.6096717945363617774390264
1.157701093689806448594481 0.004259472344656086047198773 0.6119605660344623609958603
1.165402187379612541917595 -0.01367167360906472450832183 0.6194286424825217185485826
1.157701093689806448594481 -0.03160281956278553072703374 0.6119605660344623609958603
1.211633124067351907626744 -0.03969097568322006719387929 0.6054376941583849980332843
1.205437694158384864806521 -0.03969097568322006719387929 0.6058749917116464933641851
1.205437694158384864806521 0.03969097568322006719387929 0.6058749917116464933641851
1.211633124067351907626744 0.03969097568322006719387929 0.6054376941583849980332843
1.21754537197632384248891 -0.02730011586528615502578177 0.6051545121583900010975299
1.216504454225746822970677 -0.004275806848732761206166586 0.6103090243167799133772178
1.21754537197632384248891 0.01874850216782063608289555 0.6051545121583900010975299
1.210309024316779780150455 -0.01579207156014359944573577 0.610746321870041519730421
1.205154512158389978893069 0.007232237456409794373879407 0.6060291072649131027816338
1.205154512158389756848464 -0.03881638057669699326535095 0.6060291072649131027816338
1.492290960907837860105474 -0.01427013833094993751349211 0.6089073032600205159781126
1.496145480453918930052737 0.01135415591022130923914979 0.6062510478817978443188963
1.496145480453918930052737 -0.03989443257212119120502791 0.6062510478817978443188963
1.489495219471217213325076 -0.04229096090783790451439472 0.6050527837139394460308495
1.489495219471217213325076 0.04229096090783791145328863 0.6050527837139394460308495
1.485640699925136143377813 -0.01666666666666665602702935 0.6077090390921622287123682
1.482844958488515496597415 -0.004342894390898973701331531 0.6038545195460811587651051
1.482844958488515496597415 0.02899043894243434962842976 0.6038545195460811587651051
1.549027719122055390954529 0.04460768384149382814740648 0.6455799647194382373527333
1.548055438244110959544741 -0.01666666666666663521034764 0.6463315610428023161304623
1.549027719122055390954529 0.01127435050816049007249564 0.6455799647194382373527333
1.53880814410363475630561 -0.001827921614285114241399421 0.6406360657179200890354309
1.530533130841103428565475 0.01472210491077760932676632 0.6341889740696737831626706
1.546134684696599537190309 -0.04805543824411091097248416 0.6444108074952911158206348
1.523113758314912580260625 -0.0332166931917293878351316 0.626139944097056311278493
1.529468018029932929735537 -0.04805543824411091097248416 0.6306662821977914168414259
1.536887390556123778040387 0.03321669319172941559070722 0.6387153121704088887256034
1.521193004767401379950797 0.0351612549476184726993111 0.6242191905495451109686655
1.546134684696599759234914 0.04805543824411094566695368 0.6444108074952910047983323
1.50741937252619040421564 0.004224449950001861811554882 0.6116438224761926445438576
1.514838745052381030475885 -0.01427013833094994445238601 0.6196928524488101164280351
1.50741937252619040421564 -0.03276472661190174551215648 0.6116438224761926445438576
1.554357836558714511809853 -0.044817729517469623301551 0.6491755660761840962535985
1.553415569165081056013378 -0.01313326403176820825202675 0.648351132152368059280434
1.554357836558714511809853 0.01855120145393318598081578 0.649175566076183985231296
1.552591135241265130062516 -0.04835113215236805372931883 0.6474516888748754750437797
1.552591135241265130062516 0.04835113215236808842378835 0.6474516888748753640214773
1.550824433923815970359783 0.04490337774975095702645334 0.6457278116735667428116585
1.55164886784763211835525 0.0132189122640495627936108 0.6466272549510594380706152
1.550824433923815748315178 -0.01846555322165184531701954 0.645727811673566853833961
0.9436089166744501266492762 0.007499895148300778253969145 0.6638909784738507013912567
0.9372178333489001866851709 -0.01666666666666664561868849 0.6723588642486003630338587
0.9436089166744501266492762 -0.02583343818503255201468605 0.6638909784738507013912567
0.9241832149520381456397899 -0.009402570127057151977423288 0.6872178333488998536182635
0.9175396798807261555808168 -0.02995373680929053206156709 0.6936089166744500156269737
0.9175396798807261555808168 0.01114859655517621422893271 0.6936089166744500156269737
0.930903464556608217783662 -0.03721783334890002570283229 0.6660444954563085051546523
0.9178688461597461767382811 -0.0372178333489000326417262 0.6809034645566081067613595
0.9178688461597461767382811 0.03721783334890004651951401 0.6809034645566081067613595
0.9309034645566081067613595 0.03721783334890005345840791 0.6660444954563083941323498
0.9634407228279352475297515 -0.04541820672977007339321531 0.6528033633781480382651807
0.9528033633781480826741017 -0.0454182067297700525765336 0.654611060944514933090943
0.9528033633781480826741017 0.04541820672977007339321531 0.6546110609445150441132455
0.9634407228279352475297515 0.04541820672977007339321531 0.6528033633781480382651807
0.9735656155346893436686173 -0.02414348783019572633468108 0.6522908966351149695483969
0.9652191527200171261569039 0.004608052232907675418993598 0.6545817932702299168923332
0.9735656155346893436686173 0.03335959229601108411156218 0.6522908966351149695483969
0.9545817932702300723235567 -0.01305127153393260616698335 0.6563894908365970337627004
0.9522908966351151249796203 0.01570026852917079385196786 0.6559062917678489812445264
0.9522908966351151249796203 -0.04180281159703600618593455 0.6559062917678489812445264
1.593370696940564101851123 0.01179985594297698614507652 0.6684291590024128426605898
1.586741393881128558973614 -0.01666666666666667684371106 0.6742706249120526962315125
1.593370696940564101851123 -0.02153347739035634672566388 0.6684291590024128426605898
1.578076986665108538687718 -0.0006621477653727548401407788 0.6787391344304813944887655
1.576041882508524949457751 0.003408060547795031640372354 0.6773661780392702391750959
1.56292365888353756986362 -0.03450220596341357914837999 0.6611569575660882769341242
1.578470731591346876143689 -0.03674139388112837578681535 0.6642332613048218536988543
1.569159217016735441418973 -0.01849768706211966581842709 0.6698213647821079641531128
1.569159217016735441418973 0.0184976870621196796962149 0.6698213647821079641531128
1.56292365888353756986362 0.03450220596341360690395561 0.6611569575660881659118218
1.578470731591346876143689 0.03674139388112837578681535 0.6642332613048218536988543
1.554652996593755887033694 -0.04422740944738676877046046 0.651119593958857434401466
1.554005889235164028505665 -0.0131332640317682047825798 0.652239187917714735576169
1.554652996593755887033694 0.01796088138385034532751305 0.6511195939588573233791635
1.560241447368361678016413 0.0006621477653727692600296728 0.6609035951337344227951576
1.567124112860151408099796 -0.0144274787489518802052757 0.6684484083908968088394431
1.633101042162564020543414 -0.01077370265495328216509563 0.6938747448175172083395523
1.625738403855005786979859 0.01030912031341457354982616 0.6877494896350344610880256
1.633101042162564020543414 0.03139194328178244314253575 0.6938747448175170973172499
1.61961314867252337279524 -0.0377494896350345290891859 0.6814039758484415898465159
1.61961314867252337279524 0.0377494896350345290891859 0.6814039758484415898465159
1.606125255182482725047066 0.01280795169688314291689402 0.6689332068793658603311769
1.612250510364965139231685 -0.00827487127148472667581558 0.6752787206659587315726867
1.606125255182482725047066 -0.02935769423985258932963127 0.6689332068793658603311769
0.8958491179972274398579657 0.02423644628034610920552794 0.7283873282831182516261492
0.8916982359944551905783783 -0.01666666666666666990481716 0.7329673411374006963825423
0.8958491179972274398579657 -0.009096887052987221930488992 0.7283873282831182516261492
0.8832125991674513176832306 -0.0003046069873412424189318415 0.7416982359944552793962202
0.8788778443432196940676704 -0.02533617631512991366649068 0.7458491179972277507204126
0.8788778443432196940676704 0.02472696234044744617586176 0.7458491179972277507204126
0.8876048190816945293590834 -0.04169823599445533768292904 0.7288739242246400351632474
0.8791191822546906564639357 -0.04169823599445533768292904 0.7376048190816947291992278
0.8791191822546906564639357 0.04169823599445535156071685 0.7376048190816947291992278
0.8876048190816946403813859 0.04169823599445535156071685 0.7288739242246400351632474
0.9278629518291598987644875 0.0004679247264510688294504581 0.7226049728972908647861573
0.9267824194594183051520986 -0.002628989465934469804686557 0.7241534299934835328116378
0.9223076803653228461499225 -0.006320488722256327636384032 0.7286281690875791028361164
0.9189134736409692028047402 0.0004679247264510616737161197 0.731554451085481671768207
0.9189019196222188989864321 -0.01976358085905220718370146 0.7162729301562842376682738
0.9139666721954646799730426 -0.03596232279926778879763916 0.7077056344597254522454932
0.9137403846687639497048394 -0.02345508011537406414803719 0.7279966452006322308321273
0.9092540915559184089289602 -0.03380125805978440728383205 0.7171898633655302557343703
0.9144271805281235510065585 0.02345508011537405027024938 0.7207476692503798076927524
0.9058598848315646545614754 0.03965382205558964923142184 0.7201161453634329356887633
0.9218471720326641971610115 0.0197635808590521967753606 0.7155861342969248584111597
0.9128861398257230863606537 0.03380125805978440728383205 0.7092540915559182312932762
0.9229277044024059017957029 -0.01666666666666666990481716 0.7140376772007319683410742
0.916911924605909978147622 -0.02344024732778937636368255 0.7070188386003659619660766
0.916911924605909978147622 0.009893086005543953037610905 0.7070188386003659619660766
0.9051730889722051642820588 0.02219203234148040687623293 0.7273651213136855808727432
0.9103461779444101953373547 -0.0007951230474425828587126119 0.7309229271985350218088229
0.9051730889722051642820588 -0.02378227843636555177697645 0.7273651213136853588281383
1.63912207163828327338706 -0.01417874470820161027229123 0.712121889340948888147409
1.644561035819141370240004 0.008276660263415277357657018 0.7079268861393230860556969
1.644561035819141370240004 -0.03663414967981850484113338 0.7079268861393233081003018
1.641382262642515854622616 -0.03912207163828354539170107 0.7066829251600907912944649
1.641382262642515854622616 0.03912207163828355926948888 0.70668292516009056924986
1.635943298461657535725067 -0.01666666666666665602702935 0.7108779283617163713415721
1.638203489465889450826808 -0.0005688080483018479469384254 0.7054389641808580524440231
1.638203489465889450826808 0.03276452528503147332283874 0.7054389641808580524440231
1.699192678405075485059683 0.04529083554234582253972263 0.7460981571372704568290146
1.698385356810150570439077 -0.01666666666666666296592325 0.7468380961762483005728086
1.699192678405075485059683 0.01195750220901248273008832 0.7460981571372704568290146
1.689177106971768482779339 -0.001749833010097468334945181 0.7409269399818660950529647
1.680776178728310643606392 0.0150520234768172847528156 0.7342758447485060457893269
1.69694340523973608014785 -0.04838535681015060374576819 0.7453961446058336992592785
1.673317761900026567900568 -0.0334685231535813976222471 0.7263115558893566969800304
1.680276738573069694737683 -0.04838535681015060374576819 0.7315206995523020339078357
1.687735155401354214532716 0.03346852315358142537782271 0.7394849884114516047617371
1.671875810329611855564735 0.03508316634343081746871817 0.7248696043189420956665003
1.696943405239736302192455 0.0483853568101506106846621 0.7453961446058336992592785
1.657458416828284430977192 0.004237754968562532087439365 0.7116961717968470768624911
1.664916833656568728727621 -0.01417874470820160853756775 0.719660460655996758738695
1.657458416828284430977192 -0.03259524438496574916257487 0.7116961717968470768624911
1.703994304883972077391263 -0.04524222650541184775896397 0.7492365313893838418835003
1.703142355357910364688223 -0.01343583039331093000046113 0.7484730627787674617223956
1.703994304883972077391263 0.01837056571878998428859475 0.7492365313893838418835003
1.702378886747294206571723 -0.04847306277876758939804347 0.747689270755481416586008
1.702378886747294206571723 0.04847306277876758939804347 0.747689270755481416586008
1.700763468610616335752184 0.045378541510962801253104 0.7461420101215789912885157
1.701526937221232493868683 0.01357214539886188175987769 0.7469258021448652584695083
1.700763468610616335752184 -0.01823425071323903773334862 0.7461420101215789912885157
0.8830617882036900789799461 0.00127078772736771402132594 0.7682089995236772717035478
0.8799839848973707301382774 -0.00742639434000635575983118 0.7725575905573643931134598
0.8690754512999406822260084 -0.01439067285485400027322811 0.7846041210607008764554848
0.8612447210088298721331057 -0.03232812724888836641845558 0.7923020605303504604322029
0.8612447210088298721331057 0.003546781539180349392126335 0.7923020605303504604322029
0.8725168227453893310396893 -0.0253638487340407253745056 0.7650904284053829940148717
0.8717291253880349310989573 -0.04075972767333970597780635 0.7561217012083656374699103
0.8616082891479592831274203 -0.0346041210607010013555751 0.7771369589087193663345943
0.8616082891479592831274203 0.03460412106070104298893853 0.7771369589087195883791992
0.8791962875400163301975454 0.02536384873404076700786902 0.7635888633603472586131033
0.8686513220817155822572886 0.03460412106070104298893853 0.7604702922420527588798222
0.882274090846335679039214 -0.0166666666666666525575824 0.7592402723266602482254939
0.8784085901826618192345109 -0.009544879314001502787490061 0.7546201361633301241127469
0.8784085901826618192345109 0.02378845401933182834852687 0.7546201361633301241127469
1.743918380330444550807556 0.01494562174650694054423017 0.7710272414160621590184519
1.737836760660889545704322 -0.01666666666666666296592325 0.7763911912036982609919278
1.743918380330444550807556 -0.01838771158682638712233981 0.7710272414160620479961494
1.729129663948552497743094 -0.0007475267580073363541184883 0.7798771907065599195973959
1.726504186905770454885101 0.004503427327556278926545819 0.7779992404217852541847833
1.713173717537442630742817 -0.03589025585358334574648254 0.7615582994007645822875929
1.728867131800456036216929 -0.03783676066088960399103058 0.7658061442065867696626924
1.719517869355094319416821 -0.01997111594492401512312973 0.7702653961131016302488206
1.719517869355094319416821 0.01997111594492403247036449 0.7702653961131016302488206
1.713173717537442630742817 0.03589025585358335268537644 0.7615582994007645822875929
1.728867131800456036216929 0.03783676066088960399103058 0.7658061442065868806849949
1.704204088677008899210819 -0.04482265891933800983082392 0.7509732524036529799360551
1.703561922943984230371939 -0.01343583039331093000046113 0.7519465048073061819167151
1.704204088677008899210819 0.0179509981327161532993486 0.7509732524036529799360551
1.709906074761635697001338 0.0007475267580073519666297721 0.7606536015196431188556403
1.716892392312312276558828 -0.01472016185936039951720478 0.7683874458283270758585104
1.779758356169462985008067 -0.01462246469569617769723724 0.7943808208651592650539897
1.773307946786992772558733 0.007472510367955675393558668 0.7887616417303184856990583
1.779758356169462985008067 0.02956748543160752501490762 0.7943808208651593760762921
1.767688767652151771159197 -0.03876164173031851345463394 0.7829352514079677138880697
1.767688767652151771159197 0.03876164173031852039352785 0.7829352514079680469549771
1.755619179134840779354931 0.01587050281593585868145091 0.7714896819507766068113597
1.761238358269681336665258 -0.006224472247715995276706735 0.7773160722731271565777433
1.755619179134840779354931 -0.02831944731136784576541743 0.7714896819507766068113597
0.8750580492734942872345982 2.637467236438287434370162e-05 0.8249683253988699949132979
0.8750488056410203885349119 -4.486193731214133730575769e-05 0.8250039437037083311921037
0.8671854874873070606611236 -0.01568177437011464281368944 0.8333597080056978079198871
0.8593314129660676314870216 -0.03237481570914571560315665 0.8416798540028489483688645
0.8593314129660676314870216 0.0010112669689164622850025 0.8416798540028489483688645
0.86738995882328429054553 -0.01673790327634321756233859 0.8173450968859722332027218
0.8601814350596752589694916 -0.03337819527064544988803618 0.8089985762164566551746248
0.8595266406695710736940441 -0.03335970800569776351096607 0.8257008611879617099305051
0.8595266406695710736940441 0.03335970800569774963317826 0.8257008611879617099305051
0.8678402818774111349142686 0.01673790327634316899008127 0.8166574230341928641863092
0.8601721914272012492475028 0.03335970800569774963317826 0.8090341945212952134980355
0.8678495255098850336139549 -0.01666666666666669072149887 0.8166218047293545279075033
0.8606317581138021033382302 -0.03101247758420860173300682 0.8083109023646772861582122
0.8606317581138021033382302 0.002320855749124734607180542 0.8083109023646772861582122
1.791931622686866010241147 0.005060016712022079830857191 0.8131283940251556874301286
1.783863245373732198117978 -0.01666666666666666990481716 0.8194616310428772809615339
1.791931622686866010241147 -0.02827331662131124870307453 0.8131283940251556874301286
1.77547629292353414953709 -0.0001072382337287596052594063 0.8255835311572636836530137
1.775157717786470357168582 0.0005299120403994151545790103 0.8253721942539283817907858
1.778387314166526067538143 -0.01842437278236807793319052 0.8163177256492153421874036
1.787334544537510616635245 -0.03386324537373276016838375 0.8108633416893443746076287
1.774597439865683412563158 -0.001864944349430164814707123 0.824704678099412946679081
1.774597439865683412563158 0.001864944349430139878057155 0.824704678099412946679081
1.778387314166526067538143 0.01842437278236806058595576 0.8163177256492153421874036
1.787334544537510172546035 0.03386324537373275322948984 0.8108633416893444856299311
1.781858613330304041966201 -0.01042195037401297437462677 0.8077194362956824358334984
1.777508461108675108519606 0.007472510367955662383132598 0.8154388725913646052134709
1.781858613330304041966201 0.0253669711099243112839563 0.8077194362956824358334984
1.773718586807832675589225 0.0001072382337287349532125094 0.8238258250415622097051482
1.774278864728619398150045 -0.001227794075301989838028272 0.8244933411960776448168531
1.837591319997455840962175 -0.005441926919058447109645016 0.8430332469165140452105334
1.829245789623956897074208 0.0139579002473027326269861 0.8360664938330277795586198
1.837591319997455840962175 0.03335772741366392624140502 0.8430332469165138231659284