# geometry NO_DATA 660
#  x  y  z
1.848639634982935486817723 0.04143429830098255273185259 1.092794663318046533007077
1.847279269965871328906815 -0.01666666666666666296592325 1.094356784133426518934584
1.848639634982935486817723 0.008100964967649223330559138 1.092794663318046533007077
1.840195904097458701187406 0.002499934929841687251267368 1.097279269965871328906815
1.834472903246110675468117 -0.02811266836936303359362199 1.098639634982935486817723
1.834472903246110675468117 0.03311253822904640375934804 1.098639634982935486817723
1.846120377636067511062379 -0.04727926996587138164240827 1.093197891803622923134753
1.839037011767655105387576 -0.04727926996587138164240827 1.096120377636067511062379
1.839037011767654883342971 0.04727926996587139552019607 1.096120377636067511062379
1.846120377636067511062379 0.04727926996587139552019607 1.093197891803622923134753
1.895713929964961019791758 0.0284304588893969124863137 1.082716528924435817060612
1.891427859929921684312148 -0.01666666666666666990481716 1.084929159409659060742115
1.895713929964960797747153 -0.004902874443936420384426711 1.082716528924435817060612
1.877425463061344057535962 -0.01133812707048829394873568 1.088763590131832215135432
1.867709136227805766239385 0.008094526596588351094463398 1.090385390368782125847247
1.890315054820425944015483 -0.04142785992992169263882118 1.083816354300163320445449
1.865044866429716563516195 -0.03609932033374330800912233 1.090127174334426962687417
1.873648388153759336560711 -0.04142785992992169263882118 1.087392568987981311678936
1.876312657951848539283901 0.03609932033374330800912233 1.087650785022336474838767
1.863932061320221045264134 0.04467146040382161814585871 1.089014369224931222390751
1.890315054820425944015483 0.04142785992992168569992728 1.083816354300163320445449
1.852664269798088847451822 0.03882648873893279617419694 1.091490758537021710239401
1.855328539596178050175013 0.01082169500177783058592063 1.091748974571376873399231
1.852664269798089069496427 -0.01718309873537712112456788 1.091490758537021710239401
1.942731999597874237295514 0.01906434840108632566835212 1.076332348803211935717172
1.935463999195748296955344 -0.0166666666666666594964763 1.07726417379841699073495
1.942731999597874237295514 -0.01426898493224700720238829 1.076332348803211935717172
1.925829992843533400304068 -0.002601346037763237889484103 1.078431338881296497334006
1.923463986893444443992962 0.00213066586241496529890993 1.07866667896897072687068
1.935291597397273521963257 -0.03546399919574829556756512 1.077091771999942437787467
1.916431326578992511144861 -0.02139867856684487049112597 1.079200638763159858513063
1.918624930730606914508485 -0.03546399919574829556756512 1.078792896877010853984302
1.925657591045058625311981 0.02139867856684488089946683 1.078258937082821500297314
1.916258924780517958197379 0.03593467937109657422967146 1.079028236964685083520976
1.935291597397273521963257 0.03546399919574830250645903 1.077091771999942437787467
1.907032660314452066074864 0.02293727833057180448550483 1.079969938645023219692121
1.91406532062890377687836 0.003669265626141894089118356 1.079435978850834088049737
1.907032660314451621985654 -0.01559874707828801457254464 1.079969938645023219692121
1.9846002402584415058584 -0.000429806438936809775443193 1.073518189855422244605165
1.9923001201292207529292 0.01750376715283889425545105 1.073936740098508479945849
1.9923001201292207529292 -0.01836338003071251445685874 1.073936740098508479945849
1.974984296498947689002534 -0.01915215893520270939998085 1.073717389573838776328785
1.983926922503994605406774 -0.03460024025844236905680162 1.074111779026083901555921
1.966017509703060328618562 -0.03455191867676033617984288 1.074484350972395585444019
1.966017509703060328618562 0.03455191867676034311873678 1.074484350972395585444019
1.974984296498947689002534 0.01915215893520270939998085 1.073717389573838776328785
1.983926922503994605406774 0.03460024025844236905680162 1.074111779026083901555921
1.975657614253394811498765 -0.001218585343427001791219433 1.073123800403177341422634
1.974414868119126698076116 0.001266906925109040089189039 1.073147961194018229491576
1.965448081323239337692144 0.0002670158720046931751304631 1.07391492259257503860681
1.957724040661619868686216 0.01815226788209836628062988 1.074657723200290959653103
1.957724040661619868686216 -0.01761823613808897320831548 1.074657723200290959653103
2.033685578752722822315491 0.001093115594937119289600802 1.075194312378078276282167
2.041842789376361100295298 0.01811202768099349699748579 1.075916992885241896260595
2.041842789376361100295298 -0.01592579649111925885196506 1.075916992885241896260595
2.025157628109573781927111 -0.01740343381255009952424118 1.07480538269018399688548
2.033683222306153837166676 -0.03368557875272304436009563 1.075544201350899564673114
2.016648172066545452452146 -0.03371785505982705100080921 1.074766602180410313138736
2.016648172066545452452146 0.03371785505982705100080921 1.074766602180410313138736
2.025157628109573781927111 0.01740343381255009952424118 1.07480538269018399688548
2.033683222306154281255886 0.03368557875272304436009563 1.075544201350899564673114
2.025159984556142322986716 -0.0003845217264937194311114066 1.074455493717362708494534
2.024791600983200545726959 0.0003522454193897165308953234 1.074439355563810760685328
2.016282144940172660341204 -0.000429806438936810642804931 1.074400575054037298983189
2.008141072470086108125997 0.01662138195422357619945863 1.074377932697815785090256
2.008141072470086108125997 -0.01748099483209719640086632 1.074377932697816007134861
2.094023043692140539917546 0.02598269778608909563732965 1.081959654093948230979549
2.088046087384281435106459 -0.01666666666666665602702935 1.082014392585185058592856
2.094023043692140539917546 -0.007350635547244238968134233 1.081959654093948230979549
2.077763237882666036426826 -0.003899032336563560199871326 1.081662270219229560197505
2.0734573446889106307367 0.004712754050947944202409889 1.081255409362037456233452
2.087281423644199662703613 -0.0380460873842812588585538 1.081249728845103508234615
2.067073527523858977872351 -0.02527845305417815782722535 1.07985245099122417755666
2.070614756977532611159631 -0.03804608738428125191965989 1.079494648108334731162472
2.076998574142584264023981 0.02527845305417818558280096 1.080897606479148009839264
2.066308863783777205469505 0.03723236566989690521367606 1.079087787251142405153814
2.087281423644199662703613 0.0380460873842812657974477 1.081249728845103508234615
2.056383817165051475228665 0.02165881459816736132051318 1.07804263176321857287121
2.062767634330103128093015 0.001093115594937127746377747 1.079445590134032073592607
2.056383817165051475228665 -0.01947258340829311623609854 1.078042631763218794915815
2.147250734791281701063781 0.03777730959830741253036024 1.090526574807025195212873
2.144501469582563935034614 -0.01666666666666665602702935 1.091139389590435548882397
2.147250734791281701063781 0.004443976264974081394343308 1.090526574807025195212873
2.131743277533448832627982 -0.008849717431563923486503853 1.090592994965012385577552
2.121734350693051496250519 0.01116813624923065385863286 1.089433785556179090647788
2.143247490127430765483041 -0.04450146958256396417796807 1.089885410135302379330824
2.117825876075499991202378 -0.03668452034746123163744258 1.087310565374634219182326
2.126580823460764158028269 -0.04450146958256397111686198 1.087215795328334788649727
2.13048929807831566307641 0.03668452034746125245412429 1.089339015509879438070584
2.116571896620366821650805 0.04218305076489727023503207 1.086056585919501493719963
2.143247490127430765483041 0.04450146958256397111686198 1.089885410135302601375429
2.103908474617551149776773 0.03011966116670510354436097 1.084028135784256274831705
2.107816949235102654824914 0.00460327706847450494886953 1.086151355965801146297167
2.103908474617551149776773 -0.02091310702975610405496276 1.084028135784256274831705
2.182892376234160991543831 -0.01540107208166417371297818 1.098293448315825315830807
2.169006015643342166754337 0.01451915788332008849792487 1.096586896631650764888377
2.182892376234160991543831 0.04443938784830434723938097 1.098293448315825315830807
2.167299463959167837856512 -0.04658689663165092170737935 1.094931368323696752042906
2.167299463959167837856512 0.04658689663165092864627326 1.094931368323696974087511
2.151706551684174684169193 0.03986273664739436312087761 1.091569288331568632344215
2.153413103368349013067018 0.009942506682410106114144988 1.093224816639522423145081
2.151706551684174240079983 -0.01997772328257415089258764 1.091569288331568632344215
1.749961433714064984457082 0.04971861813781310035498251 1.14975718442374796879335
1.749922867428130190958768 -0.01666666666666664908813544 1.149820742782971638717981
1.749961433714064984457082 0.0163852848044797674842421 1.14975718442374796879335
1.749820667263572104843661 0.01646226633755037277451194 1.149922867428130324185531
1.749757033384948812226867 -0.0167939344239132100355949 1.149961433714065117683845
1.749757033384948812226867 0.04971846709901395211517183 1.149961433714065117683845
1.749884866818086415207745 -0.04992286742813023536768924 1.149782742172927862966958
1.749782666653528107048032 -0.04992286742813023536768924 1.149884866818086326389903
1.749782666653528107048032 0.04992286742813026312326485 1.149884866818086326389903
1.749884866818086415207745 0.04992286742813026312326485 1.149782742172927640922353
1.783557912057339045475146 -0.008636033177739520574900389 1.120457404687124292053113
1.791778956028669433919731 0.008255212212932929588538045 1.116251677460257551999234
1.791778956028669433919731 -0.02552727856841198461612663 1.116251677460257551999234
1.775127953549510806396938 -0.01696230966274148155292778 1.124903374825504842604573
1.783496819018878465357147 -0.03355791205733911486408516 1.120620890372669542500716
1.766682330854174587386751 -0.03340439760540236252550628 1.133246872875682598191815
1.766682330854174587386751 0.03340439760540238334218799 1.133246872875682598191815
1.775127953549510806396938 0.01696230966274151277795035 1.124903374825505064649178
1.783496819018878465357147 0.03355791205733913568076687 1.120620890372669764545321
1.775189046587970942425727 -7.10642720690173219661584e-05 1.12473988913995959215697
1.775041225089933449865498 0.0002245787240058123781106386 1.124816646365927930162343
1.766595602394597452899916 0.01646241737634952448376957 1.13316014441610546370498
1.758297801197298726449958 0.03320014831508522751279955 1.141426885240314881286849
1.758297801197298726449958 -0.000275313562386184562582464 1.141426885240314881286849
1.814430385869457484915301 -0.04669737104109586423028588 1.104847085071203327544254
1.804847085071203283135333 -0.04669737104109586423028588 1.108862401815666753890355
1.804847085071203283135333 0.04669737104109587116917979 1.108862401815666753890355
1.814430385869457484915301 0.04669737104109587116917979 1.104847085071203327544254
1.820817916075960329891359 -0.02753076944458750924260571 1.101651314479451970740342
1.812885929757158232078496 0.002499934929841694190161272 1.103302628958904074707448
1.820817916075960329891359 0.03253063930427089328611956 1.101651314479451970740342
1.803302628958904030298527 -0.008636033177739527513794293 1.107317945703367723098154
1.801651314479451926331421 0.02139467119668967548529181 1.10968194796837904547715
1.801651314479451926331421 -0.03866673755216873398232735 1.10968194796837904547715
2.199771636896163062857568 -0.01617712061834756728795348 1.100473136127996243160965
2.199885818448081398202021 0.01692784961114885550204079 1.100603727600237391470728
2.199885818448081398202021 -0.04928209084784399701684166 1.100603727600237391470728
2.198812064056408388523778 -0.04977163689616309616425838 1.100358954576077907816511
2.198812064056408388523778 0.04977163689616310310315228 1.100358954576077685771907
2.198697882504489165000905 -0.01666666666666666296592325 1.100228363103836759506748
2.197738309664734490667115 0.01429079477948317668245526 1.10011418155191820211769
2.197738309664734934756325 0.04762412811281652169626 1.10011418155191820211769
2.245240687715244209954335 -0.006969506001224916313940838 1.109607892617475943808358
2.247620343857621882932563 0.02160451504735310529481396 1.112076816807819223953402
2.247620343857621882932563 -0.03554352704980294486158954 1.112076816807819223953402
2.21476329483890665983381 -0.04492856323261658346712721 1.102855940456995309517652
2.231273899264259341634897 -0.04524068771524469845246585 1.107548458548402336987238
2.200476284314618169446476 -0.04968787551737190166800673 1.100721057338777342238245
2.200476284314618169446476 0.04968787551737190166800673 1.10072105733877712019364
2.21476329483890665983381 0.04492856323261659734491502 1.102855940456995087473047
2.231273899264259341634897 0.04524068771524469845246585 1.107548458548401892898028
2.228730083289891972242458 -0.01635454218403855491947851 1.104915374526069138383377
2.214599135006917407508809 0.0119073543819113621122785 1.102691780625005391058835
2.200312124482628028943054 -0.01617712061834756728795348 1.100556897506787423779429
2.200156062241314103289369 0.01684408823235766100578914 1.10064560828963298177996
2.200156062241314103289369 -0.04919832946905280945948391 1.10064560828963298177996
2.285795258947984187614111 0.00420090110036795780917851 1.124638524935533290260992
2.292897629473992449078423 0.02332949338168511035918051 1.127969938293042595489624
2.292897629473992004989213 -0.01492769118094920688388783 1.127969938293042595489624
2.272926327597126761048685 -0.0236560198391258975914031 1.120464401982476099206565
2.283523374709364617274332 -0.03579525894798381985273394 1.12482856631156424853657
2.263362031456468415058225 -0.03786076089114207704477977 1.118210611789189012910128
2.263362031456468415058225 0.03786076089114208398367367 1.118210611789189012910128
2.272926327597126761048685 0.02365601983912591493863786 1.12046440198247632125117
2.283523374709364617274332 0.03579525894798382679162785 1.12482856631156469262578
2.275198211835746331388464 -0.00452742755780873203097503 1.120274360606444918886382
2.271703535249516736627129 0.002461925614650506931313512 1.119241609634865852740404
2.26213923910885794654746 -0.00696950600122491110977041 1.116987819441578766443968
2.256069619554429195318335 0.01422458822325049949963915 1.115766780219870746293509
2.256069619554429195318335 -0.02816360022570033386224431 1.115766780219870524248904
2.33557087332862778339404 -0.01127017141882615154646619 1.146841044747454629870731
2.322523869543132057913226 0.01574525140941634981928132 1.143682089494909348559304
2.33557087332862822748325 0.04276067423765884945030535 1.146841044747454407826126
2.319364914290586554557194 -0.04368208949490916259694728 1.140608161964305145019694
2.319364914290586998646404 0.04368208949490916259694728 1.140608161964305367064298
2.303158955252545769809558 0.0312163239286104565728408 1.134375279181155882213261
2.30631791050509082907638 0.004200901100367951737646344 1.137449206711759863708266
2.303158955252545325720348 -0.02281452172787454962810116 1.134375279181155882213261
1.718144837134077507201368 -0.0236702568878358922399574 1.191815094021913434829685
1.721349777534169067649827 -0.006706735510676159472964741 1.183630188043826692023686
1.718144837134077507201368 0.01025678586648358717181573 1.191815094021913434829685
1.733430105007795152260996 -0.0334534855363185085197486 1.166865638505686586512411
1.725050544483773595771936 -0.01708367358014491882434172 1.175347399194266451161184
1.721757252829927864468118 -0.03363018804382640614125677 1.183740808629092366999203
1.725050544483773595771936 0.01708367358014490147710696 1.175347399194266673205789
1.721757252829927864468118 0.03363018804382640614125677 1.183740808629092366999203
1.733430105007795152260996 0.0334534855363185015808547 1.166865638505686586512411
1.741402190236057911931766 -0.0003245525321014803687286188 1.158273257231840824843516
1.73311098096579030425346 0.01646226633755034848838328 1.166546514463681738504874
1.741402190236057911931766 0.03324908520720219751165558 1.158273257231840824843516
1.724731420441768747764399 0.0002968547104930598806195319 1.175028275152261603153647
1.724643069188014798953645 -0.0001201522029851843226255781 1.175236778609000776185667
2.349824663244188815980351 -0.01627418146380996480382386 1.150371579357238438490185
2.349912331622094008309887 0.01688381511371330259696499 1.150480153580761832898816
2.349912331622094008309887 -0.04943217804133324261295357 1.150480153580761610854211
2.349451623993468629691961 -0.04982466324418993730560601 1.15028391097933324616065
2.349451623993469073781171 0.04982466324418994424449991 1.150283910979333468205255
2.349363955615563881451635 -0.0166666666666666525575824 1.150175336755810073796624
2.348990916364844139252455 0.01556991465360629822711758 1.150087668377905103511694
2.348990916364844139252455 0.04890324798693962415896408 1.150087668377905103511694
2.392641140973294611171696 -0.001664096037929316262982127 1.164860144341074210672105
2.396320570486647483221532 0.02431037826869826556919207 1.168682000142090338101752
2.396320570486647483221532 -0.02763857034455689115626242 1.168682000142090116057147
2.36345621222966162378043 -0.04233552559824569488933221 1.154148404589701026878856
2.379970071208804327511643 -0.04264114097329424479809745 1.161496882216545456500967
2.350468975076347444286284 -0.04969438462495144592789842 1.150665217677776519522581
2.350468975076347000197075 0.04969438462495146674458013 1.150665217677776519522581
2.36345621222966117969122 0.04233552559824570182822612 1.154148404589701026878856
2.379970071208804327511643 0.04264114097329423092030964 1.161496882216545234456362
2.376127281994151463351272 -0.01636105129161812693494582 1.157511666714230003094599
2.363292852528361187580686 0.009307807639960922335697902 1.153985044888401478857531
2.350305615375047896264959 -0.01627418146380995786492996 1.150501857976476971501256
2.350152807687523548452191 0.01675353649447482856649216 1.150545292890380988382049
2.350152807687523548452191 -0.04930189942209476511303379 1.150545292890380988382049
2.448992265274264834573614 0.0460813883848940342158329 1.197089123110629316215636
2.447984530548529491511545 -0.01666666666666666990481716 1.197032959466711732332556
2.448992265274264834573614 0.01274805505156069440619859 1.197089123110629316215636
2.436299072220424299928254 -0.006704249989544543326946968 1.193003322209968519729273
2.425621348618054007317824 0.01465119721519624051975228 1.189029848597142668964466
2.447298653460144191029713 -0.04798453054852958032938659 1.196347082378326209806119
2.420640140279492591446342 -0.03802211387140744941470771 1.18484567558340558868224
2.430631986793477139485731 -0.04798453054852958032938659 1.188133272107846138965215
2.435613195132038555357212 0.03802211387140745635360162 1.192317445121583219247441
2.41995426319110729096451 0.04003758332287787879977259 1.184159798495020066155803
2.447298653460144191029713 0.04798453054852958032938659 1.196347082378326209806119
2.40498120833856132705364 0.02170682061828190304031416 1.176688028956842879679812
2.409962416677122298835911 -0.001664096037929309324088223 1.180872201970579737917433
2.40498120833856132705364 -0.02503501269414052168849061 1.176688028956842879679812
2.453406444252819618156991 -0.04618694205775963901317027 1.19959338631057921276124
2.452313142660541345208003 -0.01366683610326814048152588 1.199186772621158247886797
2.453406444252819618156991 0.01885326985122336151956546 1.19959338631057921276124
2.451906528971120380333559 -0.04918677262115817017118502 1.198641815228761453582251
2.451906528971120380333559 0.04918677262115817017118502 1.198641815228761453582251
2.450406613689421142510128 0.04728363045752262405763133 1.197690244146943694403262
2.450813227378842107384571 0.01476352450303112379126347 1.198235201539340488707808
2.450406613689421142510128 -0.0177565814514603764751044 1.197690244146943694403262
1.705718925428655552423152 -0.04307430000716949702876946 1.248793225435824716385014
1.704669624560590790451897 -0.01215451580218694128954215 1.247586450871649210725423
1.705718925428655552423152 0.01876526840279561098023819 1.248793225435824716385014
1.711527726327006115880636 -0.04546528746717004576538557 1.206547760749010933523095
1.707754535313186439182687 -0.04305173833881927036859594 1.222007652851502257362881
1.707743254479011207891404 -0.04758645087164921350098012 1.236406963251753809984734
1.707754535313186217138082 0.04305173833881927036859594 1.222007652851502257362881
1.707743254479011207891404 0.04758645087164921350098012 1.236406963251753809984734
1.711527726327006115880636 0.04546528746717005270427947 1.206547760749010933523095
1.712227287422405597183683 -0.03550535631117952839463925 1.202267356266415010423998
1.709514678110825247614457 -0.006706735510676149064623885 1.204534712532830065256917
1.712227287422405597183683 0.02209188528982723720428538 1.202267356266415010423998
1.705741487097005348871903 0.01425311753831588756913362 1.219994604635321389096703
1.70468090539476602174318 -0.01213195413383672156826254 1.233187140471397658103569
2.492060900019864355670052 0.0007438281399531921364923215 1.216644347383444957344523
2.496030450009932177835026 0.02613806149315145779810088 1.221380044796687380781464
2.496030450009932177835026 -0.02465040521324507460931841 1.221380044796687380781464
2.480863698624964808203686 -0.04206090001986493437380332 1.212674797393377579268758
2.480863698624964808203686 0.04206090001986493437380332 1.212674797393377801313363
2.476894148634896986038711 -0.01666666666666666990481716 1.207939099980135377876422
2.465696947239997438572345 -0.02160593608340321408745055 1.203969549990067777756053
2.465696947239997438572345 0.01172739724993012745690724 1.203969549990067777756053
2.526267349111126936378469 -0.02017610365073118500189864 1.246443452761858416977248
2.518468495412775620678758 0.00604413520631909631508627 1.242886905523716833954495
2.526267349111126936378469 0.03226437406336937763207118 1.246443452761858416977248
2.514911948174634481745215 -0.04288690552371694775235511 1.238482033498501611035181
2.514911948174634037656006 0.04288690552371694775235511 1.238482033498501611035181
2.503556547238141583022752 0.02696406699700347464609962 1.230520614235145027137719
2.507113094476283166045505 0.0007438281399531909438699318 1.234925486260360028012428
2.503556547238141583022752 -0.0254764107170970949267641 1.230520614235144805093114
1.71723276054765650044942 -0.02952533436976344932700655 1.296758094917420445213452
1.713479237897697959880361 -0.00267581120158965485300584 1.293516189834840179884168
1.71723276054765650044942 0.02417371196658413962099488 1.296758094917420223168847
1.706828500476307741706705 -0.04716044283665703218400012 1.254572425044067518484781
1.707814330126647739405144 -0.04067663267149749378726042 1.267997186628154526744083
1.713389979277514685307438 -0.04351618983484046437881787 1.283244074713149718292016
1.707814330126647295315934 0.04067663267149749378726042 1.267997186628154526744083
1.713389979277514685307438 0.04351618983484046437881787 1.283244074713149718292016
1.706828500476307741706705 0.04716044283665703218400012 1.254572425044067518484781
1.705931929446151684715005 -0.04264829197217731571178945 1.25141977858167141590684
1.705095632595583055035604 -0.01215451580218694128954215 1.252839557163342831813679
1.705931929446151684715005 0.01833926036780342272436428 1.25141977858167141590684
1.706081462245923052734042 0.01018285650150712803863051 1.266264318747429840072982
1.707903588746831236022672 -0.01382710950332370104798319 1.278269301749845432425445
2.546861952526501049476337 -0.008583481558329508070981362 1.257179640027666689405805
2.548430976263250435920327 0.02161180430150565559554998 1.259652208845086107658062
2.548430976263249991831117 -0.03877876741816467520695966 1.259652208845086107658062
2.543119710533076727188018 -0.0468619525265018335713485 1.255610616290917747051026
2.543119710533076727188018 0.0468619525265018335713485 1.255610616290917747051026
2.541550686796327340744028 -0.0166666666666666664353702 1.253138047473498106754164
2.537808444802902574366499 0.002906087732820930580324159 1.25156902373674894235478
2.537808444802902574366499 0.03623942106615426345106457 1.25156902373674894235478
2.586593006736709998705237 -0.006933147312597015728130589 1.293526154049306819970866
2.578007272294394081058044 0.01345249411935039995924512 1.287052308098613817577416
2.586593006736709998705237 0.03383813555129781824870605 1.293526154049306819970866
2.571533426343701300709199 -0.03705230809861408125538418 1.280901079936808795167735
2.571533426343701300709199 0.03705230809861408125538418 1.280901079936808795167735
2.556473845950692602713161 0.01180215987361790674903261 1.26827600582431099240921
2.562947691901385383062006 -0.008583481558329508070981362 1.27442723398611601481889
2.556473845950692158623951 -0.02896912299027691942154839 1.268276005824310770364605
1.739467976898977141786418 0.01166167551484335179745599 1.324696194191778086945988
1.744733988449488570893209 0.03446298574715379176014451 1.333594353732021620118076
1.744733988449488570893209 -0.01113963471746710898191424 1.333594353732021620118076
1.73506274951536032524757 -0.03946797689897710292861177 1.319430182641266435794591
1.73506274951536032524757 0.03946797689897713068418739 1.319430182641266657839196
1.729796737964848896140779 -0.01666666666666664214924154 1.310532023101023124667108
1.725391510581232079601932 -0.01320783430261252347492906 1.305266011550511695560317
1.725391510581232079601932 0.02012549903072080939581134 1.305266011550511473515712
1.754875864141285157771222 -0.0443491399457780280379815 1.349225004087063028990201
1.753600425940047502493258 -0.01256579843831819899568902 1.34845000817412641325177
1.754875864141285157771222 0.01921754306914164739383821 1.349225004087063695124016
1.752825430027110886754826 -0.04845000817412651455962092 1.346722508511151383814308
1.752825430027110886754826 0.0484500081741264937429392 1.346722508511151605858913
1.750774995912936393693826 0.04344501702230316175779024 1.34422001293523996068302
1.751549991825873231476862 0.01166167551484331883770995 1.345947512598215212165087
1.750774995912936393693826 -0.02012166599261651367402948 1.344220012935239738638415
2.598859668033556502564352 -0.0135915749381252271704712 1.302677877830714203710727
2.599429834016778073646492 0.01860142642876455240652511 1.303645257711763205676903
2.599429834016778073646492 -0.04578457630501500674746751 1.303645257711763205676903
2.597822747743120164187758 -0.04885966803355644427764304 1.302107711847492410583982
2.597822747743120164187758 0.04885966803355644427764304 1.302107711847492410583982
2.597252581759898593105618 -0.01666666666666666296592325 1.301140331966443408617806
2.596215661469462254729024 0.01231216215290684319605408 1.300570165983221615491061
2.596215661469462254729024 0.04564549548624018127096491 1.300570165983221615491061
2.634526842743021290971228 -0.008110858648312411003922229 1.34263770139133353787031
2.628306869284509517115112 0.01049787746768854682088978 1.335275402782667431011987
2.634526842743021290971228 0.02910661358368950638042527 1.34263770139133353787031
2.620944570675843632301394 -0.03527540278266762946435264 1.327508580588937725508458
2.620944570675844076390604 0.03527540278266762252545874 1.327508580588937725508458
2.60736229860866597363156 0.005017161177875738460596455 1.312379459786541691102002
2.614724597217332302534487 -0.0135915749381252271704712 1.320146281980271618650136
2.60736229860866597363156 -0.03220031105412619193417711 1.312379459786541913146607
1.784844843530571267820051 0.01259299986948408424380919 1.379784989737503408946395
1.792422421765285545092183 0.03077117673338896144952237 1.38683724477086478543697
1.792422421765285545092183 -0.005585176994420744389646671 1.386837244770865007481575
1.777806189212793208653807 -0.03484484353057154537580686 1.372207411502789575763472
1.777806189212792986609202 0.03484484353057149680354954 1.372207411502789575763472
1.770228610978078709337069 -0.01666666666666671500762753 1.365155156469428421317502
1.76318995666030087221543 -0.02772095490774669282463272 1.357577578234714366089975
1.76318995666030042812622 0.005612378425586640913469427 1.357577578234714366089975
1.805347575213510191716182 -0.04388018809400812819676574 1.399227763307518745961033
1.803832142645477532028053 -0.01209132814563783006600595 1.398455526615037136650699
1.805347575213510191716182 0.01969753180273245071751909 1.399227763307518301871823
1.803059905952995922717719 -0.04845552661503695068834219 1.397190929908927348179759
1.803059905952995922717719 0.0484555266150369715050239 1.397190929908926904090549
1.800772236692481431674651 0.04438185981785443268154978 1.39515409651033572835388
1.801544473384963040984985 0.01259299986948415189802475 1.396418693216445294780215
1.800772236692481431674651 -0.019195860078886149702182 1.39515409651033572835388
2.647620258526917513819399 -0.007836822040833208574683866 1.356794663785998888982931
2.648810129263458712500778 0.02311676981941779285278926 1.360019715362374315148486
2.648810129263458712500778 -0.03879041390108419612436919 1.360019715362374537193091
2.645725734663969763715841 -0.04762025852691766092394943 1.355604793049457912346156
2.645725734663969763715841 0.04762025852691765398505552 1.355604793049457912346156
2.644535863927428565034461 -0.01666666666666666990481716 1.352379741473082264135996
2.642641340064480814930903 0.008118135994606210173452077 1.351189870736540843410012
2.642641340064480814930903 0.0414514693279395343705751 1.351189870736540843410012
2.669019355417204142355558 -0.02718940350756699625422996 1.396208758924770698683915
2.665196539321446067560828 -0.001438552324692197017033668 1.392417517849541486185672
2.669019355417204142355558 0.02431229885818259744967307 1.396208758924770698683915
2.661405298246216410973375 -0.04241751784954145287898086 1.383957014571020716076077
2.661405298246216855062585 0.04241751784954146675676867 1.383957014571020716076077