# geometry NO_DATA 884
#  x  y  z
1.797564822097098780062652 0.03538893258258300061891433 1.037824110485483952714958
1.795129644194197293671778 -0.01666666666666666990481716 1.040259288388390102042536
1.797564822097098558018047 0.002055599249249658207194802 1.037824110485483952714958
1.790259288388396763380683 0.006925955055065332634234299 1.045129644194197293671778
1.787824110485497275391253 -0.02153702247246551404469272 1.047564822097098558018047
1.787824110485497275391253 0.03538893258259617757843785 1.047564822097098558018047
1.792694466291292920701039 -0.04512964419419752265527634 1.037824110485485729071797
1.78782411048549261245455 -0.04512964419419751571638244 1.042694466291292920701039
1.787824110485492390409945 0.04512964419419751571638244 1.042694466291292920701039
1.792694466291293142745644 0.04512964419419752265527634 1.037824110485485729071797
1.842561721983459577245412 0.005370331900742663505665675 1.012808609917283497736662
1.835123443966918843628378 -0.0166666666666666664353702 1.020246887933830670647239
1.842561721983459577245412 -0.02796300143259067283452168 1.012808609917283497736662
1.82089195520315283438606 -0.01179631086086513520883035 1.032688266064017756917792
1.814098744455927558760777 0.001790110633585085793753611 1.037691366177657670277767
1.827685165950375223431479 -0.03512344396691841758029184 1.012808609917287050450341
1.811663566553026516459113 -0.03025308816111689502736937 1.03525618827475107686098
1.811018499283708393932102 -0.03512344396691842451918575 1.022814810144567765348711
1.813453677186609214189161 0.03025308816111688461902851 1.025249988047474136720894
1.804225288536483340351424 0.04512964419419846634484728 1.027817910258207678708686
1.827685165950375223431479 0.03512344396691842451918575 1.012808609917287050450341
1.802435177902900642621375 0.03538893258258395124737916 1.037824110485484396804168
1.804870355805801462878435 0.006925955055052152205263827 1.040259288388390990220955
1.802435177902900642621375 -0.02153702247247964857157498 1.037824110485484396804168
1.892094102546978406920175 0.002564615281859449532481099 1.010470512734880754734945
1.884188205093957124702797 -0.01666666666666666296592325 1.018376410187908254201261
1.892094102546978406920175 -0.03076871805147388810874887 1.01047051273488097677955
1.874959816443832139043479 -0.001790110633583616699809893 1.026749927077415414089501
1.873637325246728213556935 0.000854871760623801026091062 1.027217546513895296556029
1.87628230764093317795016 -0.03418820509395711915168192 1.010470512734884307448624
1.86619904723018703585069 -0.01931164906087407331924943 1.019779268497348789779267
1.859615640974266570495388 -0.03418820509395710527389411 1.011405751607845182604706
1.867053918990808192290842 0.0193116490608740976053781 1.018844029624391467336864
1.858293149777163089098053 0.03512344396691697429035983 1.011873371044325065071234
1.87628230764093317795016 0.03418820509395713302946973 1.010470512734884085404019
1.857438278016541710613296 0.005370331900741209807392806 1.012808609917282609558242
1.864876556033083332408751 -0.01308644539950908416980901 1.0202468879338288942904
1.857438278016541488568691 -0.03154322269975937814701084 1.012808609917282609558242
1.942005427267429862325798 0.002032563604565754914604847 1.010027136337135367227802
1.934010854534859991105122 -0.01666666666666664908813544 1.018021709069712787965045
1.942005427267429862325798 -0.031300769728767573185646 1.010027136337135367227802
1.925250085321215998135358 -0.0008548717606219045396509504 1.026104957081837465437957
1.92448388884014143229706 0.0006775212015269660610627955 1.02619363236138494421823
1.926016281802287011259978 -0.03401085453486027421199367 1.0100271363371398081199
1.916577991387118817812052 -0.01819905962881552402565788 1.018287734908358554974939
1.909349615135620403805206 -0.03401085453486027421199367 1.010204486896238318394126
1.917255512588642796245608 0.01819905962881555525068045 1.018110384349264485592812
1.908583418654545837966907 0.03418820509395527340590348 1.010293162175785575129794
1.926016281802287011259978 0.03401085453486028808978148 1.0100271363371398081199
1.907905897453021859533351 0.002564615281857587306829638 1.010470512734879866556525
1.915811794906044251973753 -0.0149569231454309992807028 1.018376410187906255799817
1.907905897453022081577956 -0.03247846157271960104706565 1.01047051273488008860113
1.991991619978450644978807 0.001949719870682482206897257 1.009958099892231730976278
1.983983239956901289957614 -0.0166666666666666664353702 1.017966479913791522093902
1.991991619978450644978807 -0.03138361346265085283224749 1.009958099892231730976278
1.975311146022805219857332 -0.0006775212015245229198873167 1.025988667224329908833624
1.974647432110259170912059 0.0006499066235678581642670748 1.026002474513308060366512
1.975974859935346827910507 -0.0339832399569011886497627 1.009958099892237282091401
1.966652859377688189468358 -0.0179940944917590418816733 1.018007901780731971896898
1.959308193268679776366525 -0.0339832399569011817108688 1.009985714470199358316904
1.967302766001251201899436 0.01799409449175904535112025 1.017980287202775446786518
1.958644479356133949465857 0.03401085453485785947691511 1.009999521759177731894397
1.975974859935346827910507 0.0339832399569011886497627 1.009958099892237282091401
1.957994572732570937034779 0.002032563604563328470142825 1.010027136337134034960172
1.96598914546514191847848 -0.01531162426362786023459339 1.018021709069710567518996
1.957994572732570937034779 -0.03265581213181904807196787 1.010027136337134257004777
2.042023396838858140256434 0.002140381033121210429398529 1.010116984194262323981661
2.034046793677716458148552 -0.0166666666666666594964763 1.018093587355419105122678
2.042023396838858140256434 -0.03119295230021211853821406 1.010116984194262323981661
2.025388507032601204116418 -0.0006499066235641367487302356 1.026038413656165992904334
2.024706823548627188102955 0.0007134603443839645587135068 1.026006636795756099544974
2.026070190516568558791732 -0.03404679367771729081582066 1.010116984194270317587439
2.016698443527076278769528 -0.01803003363461476785123416 1.017998256774197862739584
2.00940352384990150724775 -0.03404679367771729775471456 1.010053430473458968563705
2.017411903871452416581178 0.01803003363461477479012807 1.018061810495017205369095
2.008721840365927935323498 0.03398323995689748328041802 1.010021653613049075204344
2.026070190516568114702523 0.03404679367771729775471456 1.010116984194270317587439
2.008008380021550909333428 0.001949719870678767730254322 1.009958099892229954619438
2.016016760043101818666855 -0.01536685341955204044117611 1.017966479913787969380223
2.008008380021551353422637 -0.03268342670978285208205349 1.009958099892229954619438
2.0921271968941113073015 0.00276318136462221650498372 1.010635984470510395638598
2.084254393788222525785159 -0.01666666666666667684371106 1.018508787576422047749247
2.0921271968941113073015 -0.03057015196871112200360798 1.010635984470510395638598
2.075564330282699820884318 -0.0007134603443778740530095694 1.026277790627078134733097
2.074747069883065897499819 0.0009210604548896837761098877 1.026173990571822347561692
2.076381590682322197949361 -0.03425439378822303648775005 1.010635984470522164002659
2.066770466721921994945887 -0.01830118746593422870971857 1.018197387410668897089749
2.059714924015655590494589 -0.03425439378822302260996224 1.010428384360024356425356
2.06769152717679993713773 0.01830118746593421136248381 1.018404987521178028941904
2.05889766361602166711009 0.03404679367771117765029132 1.010324584304768791298557
2.076381590682322197949361 0.03425439378822302260996224 1.010635984470522164002659
2.057976603161143724918247 0.002140381033115104636443959 1.010116984194259215357192
2.065953206322288071561388 -0.01523974597792942566043539 1.01809358735541288787374
2.057976603161144169007457 -0.03261987298897393861007998 1.010116984194259437401797
2.142492794667120836749064 0.00495676800263722058814686 1.012463973335516298490688
2.134985589334241762315969 -0.01666666666666667684371106 1.019971178668439559800163
2.142492794667120836749064 -0.0283765653306961157520405 1.012463973335516298490688
2.126191725773468377269637 -0.0009210604548800041275341544 1.027112786228348673134292
2.12490506754557451074561 0.001652256000908524941755973 1.026747188455334303114341
2.127478384001339151154752 -0.03498558933424187472605027 1.012463973335536948638946
2.117032264439681288337169 -0.0192399831224552078645651 1.018874385349427313940396
2.11081171733467254369998 -0.03498558933424188166494417 1.011732777789538850754525
2.11868452044056621019763 0.01923998312245519051733034 1.01960558089544583992847
2.109525059106778233086743 0.03425439378821332897517848 1.011367180016524480734574
2.127478384001339595243962 0.03498558933424186778715637 1.012463973335536948638946
2.107872803105893311226282 0.002763181364612510293454761 1.010635984470505732701895
2.115745606211786977723932 -0.01482454575693415571580047 1.018508787576412943920445
2.107872803105893311226282 -0.0324122728784808078472679 1.010635984470505732701895
2.194743212162703294154653 0.01845927297598837918402026 1.023716060813284700614645
2.189486424325406854762832 -0.0166666666666666664353702 1.028972848650697269334842
2.194743212162703294154653 -0.0148740603573449571561671 1.023716060813284700614645
2.180326962991628647614561 -0.001652256000889960581637372 1.031979218992518099184963
2.176424289495146879858112 0.006153090992073638465509333 1.029728801496926360314887
2.184229636488043357900324 -0.03948642432540697133624974 1.023716060813334216561543
2.16891708416225847955161 -0.02447201365963026092886778 1.02222159616401242487882
2.167562969821376750445552 -0.03948642432540697133624974 1.019215225822241110975597
2.175070175154265150752053 0.02447201365963027133720864 1.026722431155155046411664
2.163660296324894982689102 0.03498558933422329930706951 1.016964808326649372105521
2.184229636488043801989534 0.03948642432540697827514364 1.023716060813334216561543
2.157507205332888311488659 0.004956768002618648638613053 1.012463973335506750572677
2.165014410665776267705951 -0.0133621546649379807636393 1.019971178668420686008744
2.15750720533288786739945 -0.03168107733249460322699775 1.012463973335506750572677
2.22628393918641842574857 -0.01845927297626055382795407 1.044743212162678958065953
2.221027151349189932005856 0.004360484682431270755942343 1.039486424325358093767591
2.22628393918641842574857 0.02718024234112309880928571 1.044743212162678958065953
2.215770363511869511796704 -0.03948642432535849622343704 1.034229636487969727909331
2.215770363511869511796704 0.03948642432535849622343704 1.034229636487969727909331
2.205256787837320597844837 0.01845927297593990407120756 1.023716060813260497752708
2.21051357567464101805399 -0.0043604846827519239821358 1.028972848650648863610968
2.205256787837320597844837 -0.02718024234144375550492612 1.023716060813260497752708
1.742324779736963202836364 0.003948678421781073345775415 1.061623898684817657311896
1.734649559473926405672728 -0.01666666666666666296592325 1.069299118947853344252508
1.742324779736963202836364 -0.02938465491155224998398587 1.061623898684817657311896
1.719149172078601184310287 -0.01433410812398342761009307 1.08464955947392605040136
1.711324004946312982156087 -0.03231700093124305339653546 1.092324779736962847564996
1.711324004946312982156087 0.003648784683276201645796277 1.092324779736962847564996
1.726974339210885389661598 -0.03464955947392628354819522 1.061623898684812772330588
1.711473951815560390343762 -0.03464955947392629048708912 1.076974339210885256434835
1.711473951815560390343762 0.03464955947392629742598302 1.07697433921088503439023
1.726974339210885389661598 0.03464955947392628354819522 1.061623898684812550285983
1.787013922971892210256328 0.0004352242220274312768657499 1.063421301250134565208327
1.781333379652466852860471 -0.01179631086087867299083687 1.069537068791587719474023
1.774777111151728314908382 -0.001316226140598512634599659 1.076093337292326257426112
1.773901385970415356396757 0.0004352242220274330115892258 1.076533838251611863157109
1.773217658430145338144257 -0.02889820174957277026939195 1.061421347569266426802415
1.776463023846664768257142 -0.0451296441942120041268538 1.052870402124919557707017
1.766226165707381001723775 -0.0184181170292926077447504 1.068858617988573289636633
1.758986169666372889608397 -0.03376855755536075504030791 1.060302395806966835323237
1.766661389929407022236774 0.0184181170292926077447504 1.067977616070005186799108
1.758110444485059931096771 0.03464955947393184160221224 1.06074289676625221900963
1.784578745068985838884146 0.02889820174957277720828586 1.060986123347240628334021
1.770782480527238966772074 0.03376855755536076197920181 1.058986169666372711972713
1.790259288388411196280003 -0.0166666666666666664353702 1.05487035580578769611293
1.787824110485504380818611 0.00205559924927734092442444 1.052435177902893759238623
1.787824110485504380818611 0.03538893258261067292780311 1.052435177902893759238623
1.757675220263033910583772 0.003948678421786627930345492 1.061623898684820321847155
1.765350440526068043212149 -0.01403421438547854983858176 1.069299118947858895367631
1.757675220263033910583772 -0.03201710719274372674014728 1.061623898684820321847155
2.24190171130073689909068 0.00141026780438812532336712 1.059508556503650389402083
2.233803422601474242270569 -0.01666666666666666296592325 1.067606845202931031835192
2.24190171130073689909068 -0.03192306552894520060847938 1.059508556503650389402083
2.225301074860965844237626 -0.0003380288143500942855262936 1.075639103675315899621978
2.224897015819720103024792 0.0004700892681413030302697842 1.07557307344842034702026
2.224338741479151337898656 -0.02328984692707769532660222 1.063825165804602068675422
2.235748620308619649676984 -0.03380342260147462668529172 1.05903846723552708120053
2.221989484730760633368618 -0.006961209074761122092556143 1.072327513545110466708365
2.221989484730760189279408 0.006961209074761120357832667 1.072327513545110466708365
2.224338741479151337898656 0.02328984692707769532660222 1.063825165804602068675422
2.235748620308619649676984 0.03380342260147463362418563 1.05903846723552708120053
2.226283939186296301215862 -0.01845927297650511861304423 1.05525678783719811804076
2.221027151348945682940439 0.004360484682431270755942343 1.060513575674396635761809
2.226283939186296301215862 0.02718024234136766359437587 1.05525678783719811804076
2.218677894600554978410401 0.0003380288143500926050129263 1.069015923414904811750148
2.221585425689514892155785 -0.006153090992269724668339848 1.072261483318214914106647
2.292112316556897955166505 0.002673899341334949001508514 1.060561582784437018034396
2.284224633113795199790275 -0.01666666666666666296592325 1.068449266227564864450983
2.292112316556897955166505 -0.03065943399199837909874233 1.060561582784437018034396
2.275656255146396134136921 -0.0004700892681317680142638604 1.076126344414527702397777
2.274975560622099379770589 0.0008912997804618886035776804 1.075915739158362693927984
2.276336949670677345380909 -0.03422463311379521366806244 1.060561582784447010041617
2.26687727192283183796917 -0.0180280557152603139459135 1.067817450459086936476183
2.259670283004010293836927 -0.03422463311379521366806244 1.060140372272133868492006
2.267768571703277835638346 0.01802805571526032435425435 1.068238660971409625943807
2.258989588479713539470595 0.03380342260146509958396166 1.059929767015968860022213
2.276336949670677345380909 0.03422463311379521366806244 1.060561582784447010041617
2.258098288699267541801419 0.001410267804378593451547497 1.059508556503645726465379
2.266196577398535083602837 -0.01572648813041983839600135 1.067606845202921705961785
2.258098288699267541801419 -0.03286324406521827501403976 1.059508556503645948509984
2.343383032209723104699606 0.01029819325821584342917081 1.066915161048492155515532
2.336766064419447008759789 -0.0166666666666666664353702 1.073532128838830868033938
2.343383032209723104699606 -0.02303514007511749117629307 1.066915161048492155515532
2.327987081195888041662556 -0.0008912997804517574932173241 1.078878380976339146357645
2.32582506576260517050514 0.003432731086113546478677527 1.077607665323508268073738
2.33014909662912117482847 -0.03676606441944688108414141 1.066915161048505256147223
2.317937382319497530147601 -0.02099069753323196813044049 1.069719981880385528683064
2.313482429962454567373698 -0.03676606441944688108414141 1.064373729742890795080257
2.321370113405562207731236 0.02099069753323196813044049 1.072261413186013534470931
2.311320414529172140305491 0.03422463311378508982185664 1.063103014090059916796349
2.33014909662912117482847 0.03676606441944688108414141 1.066915161048505256147223
2.307887683443107906811065 0.00267389934132481821640881 1.060561582784432133053087
2.315775366886215103079394 -0.01488406710579360386903502 1.068449266227554872443761
2.307887683443107462721855 -0.03244203355291202378607451 1.060561582784432133053087
2.383151381090178322352813 -0.01023165111953792429100307 1.093383032209716443361458
2.376501142230513785591484 0.009867746633228688390993 1.086766064419433241994284
2.383151381090178322352813 0.0299671443859952993382656 1.093383032209716443361458
2.369884174440230584224309 -0.03676606441943328085208975 1.080149096629100968769421
2.369884174440231028313519 0.03676606441943328085208975 1.080149096629100968769421
2.356616967790283290185016 0.01029819325820224319711915 1.066915161048485494177385
2.3632339355805669356414 -0.00980120449456436948487692 1.073532128838817545357642
2.356616967790283290185016 -0.02990060224733098043214952 1.066915161048485494177385
1.692323340099601169939092 0.003640753150892658222131937 1.111317413051291502767981
1.6846466801992021622425 -0.0166666666666666594964763 1.119143716675047528497089
1.692323340099601169939092 -0.02969258018244068375590672 1.111317413051291502767981
1.669293360398397485511168 -0.01403997293494302703309451 1.134646680199202339878184
1.661616700497991594431824 -0.03201998646747860471917235 1.142323340099601347574776
1.661616700497991816476429 0.00394004059759254371408943 1.142323340099601347574776
1.676970020298795605029341 -0.03464668019920223718255414 1.11146705677464052719472
1.661616700497990706253404 -0.03464668019920223024366024 1.12697002029879556062042
1.661616700497990706253404 0.03464668019920224412144805 1.12697002029879556062042
1.676970020298795605029341 0.03464668019920225106034195 1.11146705677464052719472
1.725783779699666453666396 0.0001708965553881348399273971 1.124387116855720902819371
1.725520062266373999548819 -0.0006983314219727344840382699 1.124821730844401290738688
1.724822525327639910486255 -0.0006967424554957305209840213 1.125519267783135601845856
1.724388705822197831452058 0.0001708965553881361680750584 1.125782190733189525033708
1.71739315411100723629545 -0.01753589464402752901017735 1.116694822689034527485319
1.71014065177132157380413 -0.03403166475530608470201344 1.108276041078007256857063
1.716403743716612639857999 -0.01753430567755052613132527 1.118264189314620127291278
1.708710655066687511549617 -0.03350422988872145402261538 1.109874358209199440850057
1.716695617172273147232886 0.01753430567755055041745393 1.117392359627768838592488
1.70827683556124587660463 0.03403007578882909223150222 1.110137281159253364037909
1.718267559926688337057499 0.01753589464402755329630601 1.116402949233374020110432
1.709876934338029119686553 0.03350422988872146096150928 1.10871065506668764477638
1.718531277359980791175076 -0.01666666666666665602702935 1.115968335244693632191115
1.711015057587002674566179 -0.03030244336867733701001981 1.107984167622346749482176
1.711015057587002674566179 0.003030889964656001498571891 1.107984167622346749482176
1.707984962105585369229743 0.003024148740519501561696547 1.111009110846104874781304
1.715969924211170560823803 -0.01433926038164291295873287 1.118527112264674272523735
1.707984962105585369229743 -0.03170266950380533355069446 1.111009110846104874781304
2.391955432824298011240671 0.001775354626273181789589128 1.109819921801975084463265
2.383910865648596555388394 -0.01666666666666665602702935 1.117843110137434869955086
2.391955432824298011240671 -0.03155797870706014696118302 1.10981992180197486241866
2.375417121212926918616404 -0.0003208222046725473690712005 1.125737943417599584705613
2.3749679439529591817859 0.0005775323152631706711060411 1.125609588362304291919713
2.378573321759235970063173 -0.02054283441194924147987777 1.115306115109288453979275
2.388555972807579141914402 -0.03391086564859648044834017 1.109221010646469940397196
2.373479037340285646706661 -0.004196989949955133580861144 1.12379985954495831279587
2.373479037340285202617451 0.004196989949955156132266332 1.12379985954495831279587
2.378573321759235970063173 0.02054283441194925882711253 1.11530611510928867602388
2.388555972807579141914402 0.03391086564859649432612798 1.109221010646470162441801
2.383218428918218556589181 -0.01009755546345740204183805 1.10668401561832330237678
2.376635237886594698153431 0.009867746633228693595163428 1.113368031236646960024927
2.383218428918218556589181 0.02983304872991478576271795 1.106684015618323524421385
2.371540953467643930707709 0.0003208222046725700831067141 1.121861775672316818841523
2.373029860080317909876158 -0.003298635430019415757524337 1.123671504489662797965366
2.442711886607529692128082 0.006271319645126859944339603 1.113559433037596857474227
2.435423773215059650709691 -0.01666666666666666296592325 1.120847546430092878111395
2.442711886607529692128082 -0.02706201368820647379376254 1.113559433037596857474227
2.426787427473948710598961 -0.0006060248155554794156213427 1.127393452289503716912122
2.425439195125307811906623 0.002090439881726141244100425 1.126651244756418535075682
2.428113365512964527681561 -0.0354237732150594619717765 1.113537138727997533038661
2.417408874199751700473371 -0.01936313136394827993935763 1.118613810170812294941811
2.411446698846297476137579 -0.0354237732150594619717765 1.112045610001802353750122
2.419477019771853143481621 0.01936313136394828687825154 1.120083044587408593883993
2.410098466497656577445241 0.03393935814888882074313869 1.111303402468716949869076
2.428113365512964527681561 0.03542377321505947584956431 1.113537138727997533038661
2.4080303209255555785262 0.001803847126565503002429414 1.109834168052121095016105
2.416060641851111245870243 -0.01546884435565664198120039 1.117871602637726891060765
2.4080303209255555785262 -0.03274153583787878935007498 1.1098341680521208729715
2.486801819642056710080169 -0.005910066965469265576338387 1.142711886607526095005483
2.479333079909738835056032 0.01284703958291679055936374 1.135423773215052500873412
2.486801819642056710080169 0.03160414613130284322561891 1.142711886607526095005483
2.472044966517265240923962 -0.0354237732150527173669019 1.128135659822559810905318
2.472044966517265240923962 0.03542377321505272430579581 1.128135659822559810905318
2.457288113392473771767754 0.00627131964512010926793284 1.113559433037593304760549
2.464576226784947365899825 -0.01248578690326594686776929 1.120847546430085994728643
2.457288113392473771767754 -0.03124289345165200126874794 1.113559433037593748849758
1.676551033939131851724369 0.0004753741465087560607444273 1.173924340207377348122009
1.676132047579447448271139 -0.001313346865877268497893593 1.174818700713570418514564
1.667617414959679855712693 -0.01571591837365849536611861 1.183808707479842237120238
1.659521768699596222518267 -0.03285795918683392241588237 1.191904353739921207377961
1.659521768699596222518267 0.001426122439516940790943389 1.191904353739921207377961
1.668036401319362704853688 -0.0184553876790526996676256 1.166723054453485453052508
1.66077872777863655429087 -0.03464668019921059161081445 1.158152034046897815855459
1.659521768699594890250637 -0.03380870747984210389347481 1.175713061219757493702787
1.659521768699594890250637 0.03380870747984209695458091 1.175713061219757271658182
1.668874374038721741797531 0.0184553876790526857898378 1.16624768030698255927291
1.66035974141895259492685 0.03380870747984210389347481 1.15904639455309066420341
1.669293360398405923206155 -0.01666666666666667337426411 1.165353319800789488880355
1.661616700497996035323922 -0.02939329273573245207562543 1.157676659900394922075861
1.661616700497996035323922 0.003940040597600881662476713 1.157676659900394700031256
2.49187943774232723015416 0.001670076015380922603015268 1.159790638273053176021676
2.48375887548465534848674 -0.01666666666666666990481716 1.16771447575001841023834
2.49187943774232723015416 -0.03166325731795241460453383 1.159790638273053176021676
2.475328131767204453694831 -0.0001948207682356541093574714 1.175522952535440257548771
2.475017950307424996481132 0.0004255421513224486571892735 1.175407591843896870642538
2.480966271902747877220463 -0.01843224674673258831059108 1.16620941877795614161073
2.489969624200452535944805 -0.03375887548465578147371957 1.159168371341023906495593
2.474445341727171232548699 -0.001960400848301574548010473 1.174640162495407258447244
2.474445341727171232548699 0.001960400848301577583776556 1.174640162495407480491849
2.480966271902747877220463 0.01843224674673259178003804 1.16620941877795614161073
2.489969624200452535944805 0.03375887548465578147371957 1.159168371341023906495593
2.487177020618544620589319 -0.005159665012493351750333392 1.157663314368961415823378
2.480083481862714656074331 0.01284703958291679055936374 1.165326628737923142509203
2.487177020618544620589319 0.03085374417832693200169913 1.157663314368961415823378
2.473562551687138455491777 0.000194820768235657280648826 1.173757372455374259345717
2.47413516026739221942421 -0.001340037928743471971199108 1.174524801803863871541012
2.543479049138805958563125 0.01087429483281171505026919 1.167395245694005101455559
2.536958098277612094761935 -0.01666666666666666296592325 1.173916196555212287933045
2.543479049138805958563125 -0.02245903850052161782047122 1.167395245694005323500164
2.528281371414123235297211 -0.000686787060310691021072782 1.178968158474434924087859
2.526125595411828239633678 0.00362476494427963142133664 1.177499169532450373765187
2.530154342370488862457023 -0.0369580982776129621236727 1.167112440648088833583529
2.51813565560865004755442 -0.02097821867125699082934354 1.169444709600991005871151
2.513487675703822255002251 -0.0369580982776129621236727 1.164109942635852101844307
2.521477615507000002992299 0.02097821867125699082934354 1.172164402567311469738343
2.511331899701526815249508 0.03402012039364402801178144 1.162640953693867551521635
2.530154342370488862457023 0.03695809827761296906256661 1.167112440648088611538924
2.507989939803177747990048 0.001931320924369166972672796 1.159921260727547309699048
2.515979879606355495980097 -0.01542213280260819330269584 1.167975720659006677593084
2.507989939803177303900839 -0.03277558652958555140966013 1.159921260727547309699048
2.582604754305965144567381 -0.01087429483283969267048974 1.193479049138804981566864
2.576083803444774833479869 0.009417136778103636640668839 1.186958098277610007542648
2.582604754305965144567381 0.02970856838904696595182742 1.193479049138804981566864
2.569562852583580081500259 -0.03695809827760999227708183 1.180437147416404375377397
2.569562852583580081500259 0.03695809827760999227708183 1.180437147416404375377397
2.556520950861194574343926 0.01087429483280874520367831 1.16739524569400376918793
2.563041901722389770412747 -0.009417136778134580638033313 1.173916196555209401353181
2.556520950861195018433136 -0.02970856838907790647974494 1.16739524569400376918793
1.675668133606035725691186 0.0003855189190491634370488994 1.224717385313013773284752
1.675623205992304853850783 -0.0004753741465109270671746122 1.225147831845793788829724
1.667437704504760143109365 -0.01589562882857851675022509 1.233718852252382536249797
1.659297130630946526252956 -0.03294781441429434770684637 1.241859426126191268124899
1.659297130630946526252956 0.001156556757137314206396184 1.241859426126191268124899
1.667482632118490570860558 -0.01752755973222674956701894 1.217007257971979505839499
1.65943191347213669928351 -0.03380870747984425495058503 1.208481165179121408215224
1.659297130630945860119141 -0.03371885225238249739199148 1.225578278378568031214968
1.659297130630945860119141 0.03371885225238249739199148 1.225578278378568253259573
1.667572487345951204318339 0.01752755973222675650591285 1.216621739052935913250053
1.659386985858406049487712 0.03371885225238249045309757 1.208911611711901423760196
1.667617414959681854114137 -0.0166666666666666594964763 1.216191292520155897705081
1.659521768699597332741291 -0.03190721089381422237440944 1.208095646260078037670382
1.659521768699597332741291 0.001426122439519105292160539 1.208095646260078037670382
2.592497432466910112225378 0.004984594801455921771193847 1.212487162334545676145581
2.584994864933820135632914 -0.01666666666666666990481716 1.219989729867638317273304
2.592497432466910112225378 -0.02834873853187741543635525 1.212487162334545676145581
2.576447815745116720620445 -0.0004274317107402280453871957 1.226875247455857076417374
2.57540333408950283811123 0.00166153160048697389264416 1.22625819751098363852293
2.578726951717151827381258 -0.02195296321143991313817878 1.215685049994767119585504
2.588872667522628123748518 -0.0349948649338203132685976 1.210825630734061464366391
2.573804667472729512667229 -0.005713728255513469272974802 1.224232099183470534597973
2.573804667472729956756439 0.005713728255513463201442637 1.224232099183470534597973
2.578726951717151827381258 0.02195296321143990619928488 1.215685049994767119585504
2.588872667522628123748518 0.0349948649338203132685976 1.210825630734061242321786
2.582604754305960259586072 -0.01087429483284929783437622 1.206520950861190266678591
2.576083803444765063517252 0.009417136778103633171221887 1.213041901722380355721498
2.582604754305960259586072 0.02970856838905656938099042 1.206520950861190266678591
2.571161519200343192892433 0.0004274317107402219738550297 1.221588950911083770733967
2.572760185817116074247224 -0.003624764944286266304951383 1.223615049238597096703529