# geometry NO_DATA 684
#  x  y  z
1.848558826068526395047797 0.0468378137485812376383798 1.148278987680055207576402
1.847117652137052257188543 -0.01666666666666665602702935 1.146977732942816796679608
1.848558826068526395047797 0.01350448041524789956346897 1.148278987680055207576402
1.846660730697383900889008 0.01575282378732991567238386 1.147117652137052523642069
1.847644983189189682448728 -0.01469816168305562720242108 1.148558826068526439456718
1.847644983189189682448728 0.0462038092577154585471888 1.148558826068526439456718
1.848465566126209491670807 -0.0471176521370522127796221 1.148325646931974031161872
1.848008644686541579460481 -0.04711765213705219890183429 1.148465566126209758124332
1.848008644686541135371272 0.047117652137052219718516 1.148465566126209536079728
1.848465566126209935760016 0.047117652137052219718516 1.148325646931974031161872
1.88387971158396494431031 0.01557391016540310077487241 1.132240576832069578472328
1.891939855791982205701629 0.03278695508270154657104456 1.140300721040087061908253
1.891939855791982205701629 -0.001639134751895344153937994 1.140300721040087061908253
1.883001898193786605162359 -0.01761612776054005680137493 1.13245551994315474253483
1.891536772948740896538311 -0.03387971158396510529264845 1.140444016447477171283253
1.874395375735137481143511 -0.03373641617657494040649624 1.140922123207568583680427
1.874395375735137481143511 0.03373641617657494734539014 1.140922123207568583680427
1.883001898193786605162359 0.01761612776054005680137493 1.13245551994315474253483
1.891536772948740452449101 0.03387971158396511223154235 1.140444016447477171283253
1.875344836829010874978962 -0.0004030828432416114388836537 1.1242520803277469276793
1.874870106282074289083539 0.0005463782506317822881478086 1.1243237280314419823668
1.866263583823425165064691 0.01638682827819568435523401 1.132790331295856045557002
1.858131791911712626941267 0.03345657778810396526525395 1.141185286856574609970494
1.858131791911712626941267 -0.0006829212317125918927165906 1.141185286856574609970494
1.933989487780881422196444 0.01535435777157121740865708 1.132021024438237821740927
1.941994743890441021960669 0.03267717888578562657198034 1.140026280547797421505152
1.941994743890441021960669 -0.001968463342643189152580963 1.140026280547797421505152
1.932841843181159813269687 -0.01786919936484619372829563 1.132185688733611694800629
1.941448365639808937288535 -0.03398948778088106692507608 1.140136056744713410893155
1.92418043262405236148993 -0.03387971158396511917043625 1.140300721040087061908253
1.92418043262405236148993 0.03387971158396512610933016 1.140300721040087061908253
1.932841843181159813269687 0.01786919936484620413663649 1.132185688733611694800629
1.941448365639808937288535 0.03398948778088108080286389 1.14013605674471318884855
1.925382965322232076132991 -0.000546378250631788576520409 1.124070656427136327693006
1.924781698973142329833763 0.0006561544475477464142404438 1.124125544525594211364705
1.916120288416034878054006 0.01557391016540310597904284 1.132240576832069578472328
1.908060144208017172573477 0.03278695508270156044883237 1.140300721040087061908253
1.908060144208017172573477 -0.001639134751895354128597981 1.140300721040087061908253
1.984017647354349378474581 0.01529803862463497733659157 1.131964705291301775957891
1.99200882367717468923729 0.03264901931231747878037197 1.1399558816141270867206
1.99200882367717468923729 -0.00205294206304752627559318 1.1399558816141270867206
1.982691258672519829531211 -0.0180071351352302268244987 1.132006944651503754784017
1.991352669229626837221758 -0.03401764735434917308332103 1.139984041187595220634421
1.974015768328678532839149 -0.03398948778088105998618218 1.140026280547797199460547
1.974015768328678532839149 0.03398948778088106692507608 1.140026280547797199460547
1.982691258672519829531211 0.01800713513523023029394565 1.132006944651503754784017
1.991352669229626837221758 0.03401764735434917308332103 1.139984041187595220634421
1.975356236797242148739429 -0.0006561544475477267901811218 1.123987608755210310107486
1.974686002562960229766986 0.000684314021015832081064334 1.124001688541944155019792
1.966010512219118933074924 0.01535435777157121567393361 1.132021024438238043785532
1.958005256109559555355304 0.03267717888578561269419254 1.140026280547797421505152
1.958005256109559555355304 -0.001968463342643177009516631 1.140026280547797421505152
2.033958966629250575408605 0.01541540007483107113661625 1.132082066741497694550844
2.041979483314625198886461 0.03270770003741553522136343 1.1401025834268723180287
2.041979483314625198886461 -0.001876899887753393815492675 1.1401025834268723180287
2.032619678949767916265046 -0.01797661398360030776677476 1.131994045653850644583827
2.041295169293609212957108 -0.03395896662925113052011739 1.140043902701774136687618
2.023973528968475932288129 -0.03401764735434918002221494 1.1399558816141270867206
2.023973528968475932288129 0.03401764735434918696110884 1.1399558816141270867206
2.032619678949767916265046 0.01797661398360031470566867 1.131994045653850644583827
2.041295169293609212957108 0.03395896662925113745901129 1.140043902701774136687618
2.025283476285409278716543 -0.0006843140210158459588521418 1.124032209693574424491658
2.024628502626942605502336 0.0006256332959178001430419758 1.124002869331025333821117
2.015982352645650621525419 0.01529803862463497560186809 1.131964705291301775957891
2.00799117632282531076271 0.03264901931231749265815978 1.1399558816141270867206
2.00799117632282531076271 -0.002052942063047541020742726 1.1399558816141270867206
2.083855718876495011215866 0.015621895580342413240027 1.132288562247008911754165
2.091927859438247327972249 0.0328109477901711993341749 1.140360702808761228510548
2.091927859438247772061459 -0.00156715662948636699942917 1.140360702808761228510548
2.082656076161037539407062 -0.01781468550574655598794926 1.132133690617875609873977
2.091302226142329523383978 -0.0338557188764954525295181 1.140257455056005619908888
2.074061550056122804619463 -0.03395896662925110276454177 1.140102583426872095984095
2.074061550056122804619463 0.03395896662925110970343567 1.140102583426872095984095
2.082656076161037539407062 0.01781468550574655598794926 1.132133690617875387829372
2.091302226142329523383978 0.0338557188764954525295181 1.140257455056005619908888
2.075209568895203027238949 -0.0006256332959177729295674464 1.124164797808878679674649
2.074635559475662915929206 0.0005223855431621147798679217 1.124113173932500986396121
2.066041033370748625230817 0.01541540007483107113661625 1.132082066741497694550844
2.058020516685374001752962 0.03270770003741550746578781 1.140102583426872095984095
2.058020516685374445842172 -0.001876899887753367360959666 1.140102583426872095984095
2.133750897688195369283903 0.01583253564773770896700888 1.132498703469006162691812
2.141875448844097640233031 0.03291676666926695443704531 1.140623753470306533941425
2.141875448844097640233031 -0.001251695373791536936708413 1.140623753470306533941425
2.132759157245556647097828 -0.01760661656469135818992022 1.132341592890694359496706
2.141353683350470937796217 -0.03375089768819590496651273 1.140519053486144240849853
2.124217041734792310592184 -0.0338557188764954455906242 1.14036132285829694410495
2.124217041734791866502974 0.0338557188764954525295181 1.14036132285829694410495
2.132759157245556647097828 0.01760661656469136165936717 1.132341592890694359496706
2.141353683350470937796217 0.03375089768819591884430054 1.140519053486144240849853
2.125156371583281078585514 -0.0005223855431621133704050974 1.124321242873556281338665
2.124686396634269058836253 0.0004175643548625791430864429 1.124268832279406549190526
2.116144281123504278241398 0.015621895580342413240027 1.13228856224700913379877
2.108072140561752405574225 0.0328109477901711993341749 1.140360702808761228510548
2.108072140561752405574225 -0.001567156629486367649950473 1.140360702808761228510548
2.177767372168307069557613 0.004880370791142649850025137 1.127112998622835426942856
2.180043964177510673607685 -0.0003271867727358962474326631 1.129716777404774497028939
2.176440143736148247199935 -0.00688045410998773358801639 1.13821370412447597786354
2.170559731285583104920534 -0.02842749156779704813868825 1.144106852062237944522849
2.170559731285583104920534 0.01466658334782161739184847 1.144106852062237944522849
2.177395994387199440467384 -0.005623126353357885479078426 1.127068807614463707977848
2.168899067667497959632783 -0.02196260624728868862676201 1.135148668824700557422602
2.165666625007244050493682 -0.03821370412447601394578811 1.143689786552773313133002
2.168899067667497959632783 0.02196260624728866087118639 1.135148668824700557422602
2.165666625007244050493682 0.0382137041244759861902125 1.143689786552773535177607
2.177395994387199440467384 0.005623126353357857723502811 1.127068807614463707977848
2.175119402377996280506522 -0.0004155687894793398695116038 1.124465028832524193802556
2.174748024596888207327083 0.0003271867727358680581761785 1.124420837824152474837547
2.166251097877186726492482 0.01583253564773770896700888 1.132500699034389324282301
2.15812554893859331883732 0.03291477110388371651872319 1.140624751252997892692065
2.15812554893859331883732 -0.00124969980840829858470542 1.140624751252997892692065
1.78460381019666369795118 0.01412571294000528054901622 1.180792379606672160008429
1.792301905098331760157748 0.03206285647000264166228689 1.188490474508340222214997
1.792301905098331760157748 -0.00381143058999206365070056 1.188490474508340222214997
1.788877713877462527491957 -0.003346743347044555533242871 1.19222445722450753891053
1.781102171101969888766803 0.01443550443530361784838512 1.184448914449014900185375
1.788877713877462527491957 0.03221775221765180857724786 1.19222445722450753891053
1.783466259163267508824902 -0.01827201859781816747907435 1.182195782299936936965423
1.791967030030511054405906 -0.03460381019666403101808783 1.189426076303849999504791
1.782273230173761158212642 -0.01811712285016899709466642 1.183388811289443065533078
1.789658419925323373789183 -0.03444891444901486410312685 1.191889582156687055203292
1.782273230173761380257247 0.018117122850168955461303 1.183388811289443065533078
1.789658419925323373789183 0.03444891444901484328644514 1.191889582156686611114083
1.783466259163267508824902 0.01827201859781812584571092 1.182195782299936936965423
1.791967030030511054405906 0.03460381019666401714030002 1.189426076303849999504791
1.776103039329419930325571 -0.0003348750678208239840889793 1.173562085602759097469061
1.775300363363844446951134 0.001270476863330653044537044 1.174029886500514097136261
1.774107334374338096338874 0.00111558111568148266012912 1.175222915490020003659311
1.773716981350407895234866 -0.0003348750678208244177698483 1.175948143581771354604371
1.839304029932002260139257 -0.03460381019666404489587563 1.173094284705004097801861
1.823094284705004008984019 -0.03460381019666404489587563 1.188490474508340000170392
1.823094284705003786939415 0.03460381019666404489587563 1.188490474508340222214997
1.839304029932002260139257 0.03460381019666404489587563 1.173094284705004319846466
1.840117585355664830970568 -0.002184319742667470160696341 1.157698094901668195433331
1.831605935030334197932689 0.0157528237873298983251491 1.165396189803336257639899
1.840117585355664830970568 0.03368996731732729066344234 1.157698094901668195433331
1.815396189803335724732847 0.0141257129400052892226336 1.180792379606672160008429
1.807698094901667662526279 0.03206285647000267635675641 1.188490474508340222214997
1.807698094901667662526279 -0.003811430589992084467382272 1.188490474508340222214997
2.188230678660220362985456 0.006871976012892371324380925 1.17353864267955931843801
2.19411533933011027031057 0.0284359880064460925075398 1.179423303349449003718519
2.19411533933010982622136 -0.01469203598066130822541453 1.179423303349449003718519
2.182341778941782717282649 -0.03823067866022038241435865 1.167653982009669411112895
2.182341778941783161371859 0.03823067866022035465878304 1.1676539820096696331575
2.176457118271893254046745 -0.01666666666666670459928667 1.161769321339779725832386
2.170568218553455608343938 -0.01864977544976735568393877 1.155884660669889818507272
2.170568218553455608343938 0.01468355788356598065624858 1.155884660669890040551877
2.234479144101499947794309 0.0143750451303325983698489 1.181041711796999349459725
2.242239572050749973897155 0.03218752256516629883797975 1.188802139746249153517965
2.242239572050749973897155 -0.00343743230450106393436549 1.188802139746249153517965
2.226560220727085592784533 -0.0227098227617208367479229 1.175414409958919215171136
2.237342226723862737003401 -0.03447914410150035996460716 1.185050605187529138007108
2.217653982009669011432607 -0.0382306786602204726199794 1.179423303349449003718519
2.217653982009669011432607 0.03823067866022041710882817 1.179423303349449003718519
2.226560220727085592784533 0.0227098227617207500117491 1.175414409958919215171136
2.237342226723862737003401 0.03447914410150033220903154 1.185050605187529138007108
2.223697138104722803575442 -0.004897345326887172708985041 1.171405516568389426623753
2.220675560057195685459419 0.001145810768166942092416427 1.169529749289029307846022
2.211769321339779104107492 0.006871976012892355711869641 1.173538642679559096393405
2.205884660669889640871588 0.02843598800644616189647884 1.179423303349449003718519
2.205884660669889640871588 -0.01469203598066139496158833 1.179423303349449003718519
2.283865785255747571369511 0.0156028076319521397108403 1.1822689518935620700546
2.291932892627873918911519 0.03280192622103292321433798 1.190336581670745186301019
2.291932892627873918911519 -0.001596310957128617771805246 1.190336581670745186301019
2.281881924635768221776289 -0.01834492935724781059736443 1.181349472713354220587689
2.290788163353185247217425 -0.03386578525574745340831484 1.189723781913413880317876
2.273282365341227961863524 -0.03447914410150035996460716 1.188803221239727481162163
2.273282365341227961863524 0.03447914410150033914792544 1.188803221239727481162163
2.281881924635768221776289 0.01834492935724776202510711 1.181349472713354220587689
2.290788163353185247217425 0.03386578525574742565273922 1.189723781913413880317876
2.274959546538330545928375 -0.001145810768167051813676283 1.173894642693502632369018
2.274120415193039868029246 0.0005324519224140658937849402 1.173587963270626310929856
2.265520855898499164027271 0.01437504513033261051291323 1.18104171179699957150433
2.257760427949249582013636 0.03218752256516629883797975 1.188802139746249153517965
2.257760427949249582013636 -0.003437432304501058730195062 1.18880213974624937556257
2.326870402194794351657947 0.003083772095137304967288339 1.176213369900342309293251
2.32824803016875003791597 -0.0003285161472263402196794524 1.177919514021524172164845
2.322841878817369476450949 -0.01048378655553568530867103 1.186417105428470897265925
2.316058099492033228727905 -0.03023422531733966495126609 1.193208552714235537450804
2.316058099492033228727905 0.009266652206268301272817922 1.193208552714235537450804
2.326440963071586764954191 -0.003942650341553004429695495 1.176112446924360899203066
2.317943371664640483942321 -0.02028080086099334072846645 1.18407810881395003654859
2.312966659436467509181057 -0.03641710542847065301685916 1.192676623196878171739854
2.317943371664640483942321 0.02028080086099331991178474 1.184078108813950258593195
2.312966659436467509181057 0.03641710542847065301685916 1.192676623196878171739854
2.326440963071586764954191 0.003942650341552976674119879 1.176112446924360899203066
2.325063335097631078696168 -0.000530362099189360218509659 1.174406302803179036331471
2.324633895974423047903201 0.0003285161472263121930532936 1.174305379827197626241286
2.316136304567477210980542 0.01560280763195215011918116 1.182271041716786763586811
2.308068152283738960761639 0.0327998363978081741709758 1.190337626582357533067125
2.308068152283738960761639 -0.001594221133903854850655257 1.190337626582357533067125
1.785510450127798076636054 -0.007387459846641956928703365 1.242897909974440384672789
1.778408360102238461308843 0.01174169343557200130556684 1.235795819948880769345578
1.785510450127798076636054 0.03087084671778595607039009 1.242897909974440162628184
1.788877713877462527491957 -0.03444891444901485022533905 1.223326628326477649721937
1.780428718352037309458069 -0.02024473439789546344580451 1.232891204967584641849498
1.786857355627664123431941 -0.03579581994888061946546998 1.241782328858758832623721
1.780428718352037309458069 0.02024473439789548079303927 1.232891204967584641849498
1.786857355627663901387336 0.03579581994888063334325778 1.241782328858758610579116
1.788877713877462527491957 0.03444891444901485716423295 1.223326628326477649721937
1.788877713877462527491957 -0.003346743347044539053369849 1.207775542775492816360838
1.781102171101969888766803 0.01443550443530364907340768 1.215551085550985455085993
1.788877713877462527491957 0.03221775221765182939392957 1.207775542775492816360838
1.772653175576544670732915 0.002462486615547302207240854 1.225115662192092225168949
1.771979722826611869379576 -0.001115581115681502609449094 1.226904696057706578571356
2.336427327452159197207493 0.0104786784290140967679239 1.227145345095680850633357
2.343213663726079420968063 0.03023933921450705497591116 1.233931681369600852349322
2.343213663726079420968063 -0.009281982356478857970616403 1.233931681369601074393927
2.329638437114978533060139 -0.03642732745215962464335746 1.220359008821760848917393
2.329638437114978533060139 0.03642732745215962464335746 1.220359008821760626872788
2.322852100841058309299569 -0.01666666666666666990481716 1.213572672547840625156823
2.316063210503877645152215 -0.02405645910337605997142418 1.206786336273920401396254
2.316063210503877645152215 0.009276874229957274634039699 1.206786336273920401396254
2.384073726856675179419653 0.01518587961998213095582422 1.231852546286648752982273
2.392036863428337767345511 0.03259293980999104778373265 1.239815682858310896818921
2.392036863428337767345511 -0.002221180570026780667913791 1.239815682858310896818921
2.379062538916764779628465 -0.02050105430883509757822303 1.22832214539342254866483
2.388942869309510719233458 -0.03407372685667558326327864 1.23746208226282683462216
2.370359008821760316010341 -0.036427327452159513621055 1.233931681369600852349322
2.370359008821760316010341 0.036427327452159513621055 1.233931681369600852349322
2.379062538916764779628465 0.02050105430883508716988217 1.22832214539342254866483
2.388942869309511163322668 0.03407372685667557632438474 1.23746208226282683462216
2.374193396463928795725451 -0.003093994118826186821846758 1.222712609417244244980338
2.372276202642844555867896 0.0007403935233422410683995496 1.221535809119502324904261
2.363572672547840092249771 0.01047867842901409503320043 1.227145345095680628588752
2.356786336273919424399992 0.0302393392145069439536087 1.233931681369600852349322
2.356786336273920312578412 -0.00928198235647874694831394 1.233931681369600852349322
2.426886458389762246667942 0.003070499819263302135330385 1.226184041429500881648096
2.428246104059328391855388 -0.0003512084801312112536386678 1.22789489557919795359453
2.42280766630519295290469 -0.01052566702813995808130088 1.236403833152596831723713
2.416009582881491368766547 -0.03026283351406993185617189 1.243201916576298415861856
2.416009582881491368766547 0.009211499457790008754676236 1.243201916576298415861856
2.426340657388025512375407 -0.004162101822736758577336857 1.225989448907895296159154
2.417831719814627078335434 -0.02047756000927221375906839 1.233757992957951632462255
2.412939083062227929588062 -0.03640383315259664021024122 1.242461523052956096080379
2.417831719814627078335434 0.02047756000927221722851534 1.233757992957951632462255
2.412939083062227929588062 0.03640383315259664021024122 1.242461523052956096080379
2.426340657388025512375407 0.004162101822736762046783809 1.225989448907895296159154
2.424981011718459811277171 -0.0007403935233422462725699775 1.22427859475819822421272
2.424435210716723076984636 0.0003512084801312146146654025 1.224084002236592638723778
2.415926273143324198855453 0.01518587961998214136416507 1.231852546286648975026878
2.407963136571662055018805 0.03259293980999106166152046 1.239815682858310896818921
2.407963136571662055018805 -0.002221180570026775897424232 1.239815682858311118863526
1.789684708775224564192285 -0.002379018382926906434449155 1.292063727158151431595456
1.78174676365038431313792 0.0150817692667097394410014 1.284127454316303040826597
1.789684708775224120103076 0.03254255691634638791853718 1.292063727158151431595456
1.78551509167425859203604 -0.03579581994888061946546998 1.271310911623139361381618
1.779247184464987530105873 -0.01992327426518393160281839 1.28004130544795757806753
1.788019312406115890468072 -0.03412745431630331144345902 1.289605882089064792239697
1.779247184464987308061268 0.01992327426518393160281839 1.280041305447957356022926
1.788019312406115890468072 0.03412745431630331144345902 1.289605882089064792239697
1.78551509167425814794683 0.03579581994888061946546998 1.271310911623138917292408
1.785510450127797854591449 -0.007387459846641962132873793 1.257102090025559615327211
1.778408360102238017219634 0.01174169343557199263194946 1.264204180051119008609817
1.785510450127797854591449 0.03087084671778594913149618 1.257102090025559393282606
1.772140452892967177334071 0.0007941209829699718506651474 1.272934573875937447340334
1.77297463570925595277572 -0.002462486615547290064176522 1.274562877675196048699036
2.436403833152597009359397 0.01052566702813984879372189 1.277192333694806780641784
2.44320191657629859349754 0.03026283351406993185617189 1.283990417118508364779927
2.44320191657629859349754 -0.00921149945779022732983421 1.283990417118508364779927
2.429605749728894981132044 -0.03640383315259674429364978 1.270394250271104974459035
2.429605749728894981132044 0.03640383315259675123254368 1.270394250271104974459035
2.4228076663051933969939 -0.01666666666666666990481716 1.263596166847403390320892
2.416009582881491368766547 -0.02412183387554322003265561 1.256798083423701584138144
2.416009582881491368766547 0.009211499457790123246425651 1.256798083423701584138144
2.483963064502157980228958 0.01619734340960646973295312 1.282468940535977930395006
2.491981532251078768069874 0.0334937412450983379441638 1.290882477825193719311869
2.491981532251078768069874 -0.001099054425885403899268433 1.290882477825193719311869
2.48084798265667227923359 -0.02036689765475522412296883 1.280218251487847069824966
2.490716565899636414371798 -0.03396306450215853811602784 1.289852173102281840399996
2.472199783738926015530524 -0.03640383315259668878249855 1.285795950586329450260337
2.472199783738926015530524 0.03640383315259669572139245 1.285795950586329450260337
2.48084798265667227923359 0.02036689765475522759241578 1.280218251487847069824966
2.490716565899636858461008 0.03396306450215853811602784 1.289852173102282062444601
2.474094481259193401001539 -0.003070499819263354610715533 1.272835018921543159819976
2.472244365765149165525827 0.0006297311688252061126491732 1.271614634596323956117203
2.463596166847403345911971 0.01052566702813984879372189 1.277192333694806558597179
2.456798083423701761773827 0.03026283351406987634502066 1.283990417118508142735323
2.456798083423701761773827 -0.009211499457790173553406454 1.283990417118508142735323
2.502396906637477158596994 -0.04601550222698642250707124 1.29841240886446440683244
2.503579840022041480551707 -0.01585735116472412539745385 1.296824817728928991300563
2.502396906637477158596994 0.01430079989753816824271659 1.29841240886446440683244
2.50199224888650606501983 -0.0468248177289289635449876 1.298177747235934376135447
2.50199224888650606501983 0.0468248177289289635449876 1.298177747235934376135447
2.501587591135534971442667 0.04635549447186876337312356 1.297943085607404345438454
2.503175182271070386974543 0.01619734340960646973295312 1.296590156100398738558965
2.501587591135534971442667 -0.0139608076526558256419408 1.297943085607404123393849
1.792280664740819595692756 0.003699205574368905850152212 1.311418540833549251090062
1.784561329481638924931985 -0.01666666666666664214924154 1.319130267528004329946612
1.792280664740819595692756 -0.02963412775896443265843949 1.311418540833549251090062
1.776078139784174503290615 -0.0002997127282630546174502228 1.32637785251243789375053
1.775314285345889864231594 0.001227996148306245184633756 1.325913710802416378697899
1.782761167839459703898797 -0.01868209255106863947437645 1.316886949872771994662912
1.791488216040840741882789 -0.034561329481639535554649 1.310182936120517727118795
1.775070426841973247888973 -0.002315138612665047172095578 1.325370139570236860393493
1.775070426841973247888973 0.002315138612665114392630272 1.325370139570236860393493
1.782761167839459703898797 0.01868209255106868457718683 1.316886949872771994662912
1.791488216040840741882789 0.03456132948163956331022462 1.310182936120517727118795
1.7896880543986615208496 -0.002372327136052700385232539 1.307939618465285391835096
1.78175345489725867054176 0.01508176926670976199240659 1.315879236930570961305875
1.7896880543986615208496 0.03253586566947219704815097 1.307939618465285391835096
1.774062713899772214531936 0.0002997127282631220548253514 1.324362426628035827036456
1.774306572403688608829952 -0.0007874297360957473700115994 1.324905997860215345340862
1.838681258707082877279504 -0.003604477577092641063516432 1.342285736284175357013737
1.83091202492727855855037 0.0143003283245911414628404 1.334571472568350403165027
1.838681258707082655234899 0.03220513422627492572392072 1.342285736284174912924527
1.82319776121145360470166 -0.03457147256835045590062094 1.326854674330540051485627
1.82319776121145360470166 0.03457147256835044896172704 1.326854674330539829441022
1.807714263715824332123816 0.003709348661079799741591145 1.311423612376904523912913
1.815428527431649285972526 -0.0141954572406039966625535 1.319140410614715097636918
1.807714263715824332123816 -0.03210026314228778265835729 1.311423612376904523912913
2.534400671083650635750928 0.01455150364227329740085537 1.331208414070819578967075
2.542200335541825229057622 0.03228550805925729100254173 1.339017834767114667471333
2.542200335541825229057622 -0.003182500774710703573405768 1.339017834767114667471333
2.525938326626129715180014 -0.03440067108365066350650352 1.323408749612644763615776
2.525938326626129715180014 0.03440067108365067044539742 1.323408749612644541571171
2.51813866216795512187332 -0.0166666666666666664353702 1.315599328916349231022309
2.509676317710433757213195 -0.03145668008107345425816703 1.30779966445817441567101
2.509676317710433757213195 0.001876653252259878612573374 1.30779966445817441567101
2.575876622492474066206114 0.001155971279601702896705495 1.32527934878712749799945
2.576305289705937973110395 -0.0002986368526734212549070269 1.326006652853264800029365
2.569011319228081902110716 -0.0142893041030390660628413 1.334489304612934912341871
2.561288681536761480117548 -0.03211194204930743062442744 1.342244652306467722624461
2.561288681536761480117548 0.003533333843229297631383101 1.342244652306467722624461
2.57521318434691703913586 -0.002482847570715456062689919 1.324914547494243866054831
2.566730532587246926823354 -0.01885087738470869744844549 1.332339617741717496812726
2.56010000025494743880472 -0.03448930461293502752750939 1.341187070794270796980641
2.566730532587246926823354 0.01885087738470870091789244 1.332339617741717274768121
2.56010000025494743880472 0.03448930461293503446640329 1.341187070794270796980641
2.57521318434691703913586 0.002482847570715460833179478 1.324914547494243866054831
2.57478451713345268814237 -0.001028239438440331585816745 1.32418724342810634198031
2.574121078987895661072116 0.0002986368526734260253965858 1.323822442135222710035691
2.56563842722822599284882 0.01455150364227329740085537 1.331247512382696118748981
2.557819213614112907606568 0.03224640974738029325363797 1.339037383923053159406891
2.557819213614112463517358 -0.00314340246283370408977853 1.339037383923053159406891
1.842044613808574426983 0.002521459189055511029842194 1.360476845380481414338192
1.834089227617148321058949 -0.01666666666666666296592325 1.36830534340310205898561
1.842044613808574426983 -0.03081187414427781837145126 1.360476845380481414338192
1.825633110469786268836856 -0.0002455676280573407016701026 1.375878678097844032279795
1.82513237951385010049421 0.0007558942838150822319046029 1.375623514769964916837353
1.832020169622714522716933 -0.01843844431345870865657233 1.366536672127085960681825
1.840861444637536425972257 -0.03408922761714840848901176 1.35959406292786111336568
1.824747221646390471505583 -0.002017345274849386988630373 1.374992789274447790859313
1.824747221646390471505583 0.002017345274849389590715587 1.374992789274447790859313
1.832020169622714522716933 0.01843844431345871212601928 1.36653667212708573863722
1.840861444637536425972257 0.03408922761714840848901176 1.35959406292786111336568
1.838792386643103071719452 -0.003382221705052480299757978 1.35782539165184479301729
1.83113428079931872538566 0.01430032832459115013645778 1.365650783303689497216737
1.838792386643102627630242 0.03198287835423477970531181 1.35782539165184479301729
1.823861332822994230085101 0.000245567628057343249545208 1.374106900451051771483435
1.824246490690454081118332 -0.001015883362976963784005124 1.374737625946568897461475
1.897843399203935632613138 0.03706039522361680160766895 1.389216996019680516738504
1.895686798407872020177933 -0.0166666666666666664353702 1.391373596815744351218314
1.897843399203935854657743 0.00372706189028346873692854 1.389216996019680516738504
1.886891150097496749893367 -0.0009246299540835468131275143 1.387815780051580460963123
1.880252102583185536133215 0.01235346507453893329098182 1.382101362491352958272728
1.893371803508614448219305 -0.04568679840787226442699875 1.389058601916487223348895
1.872381084226894198963009 -0.02994476169528914599737845 1.374188496633598433049883
1.876705136841948062809138 -0.04568679840787226442699875 1.377587919294568141737045
1.884576155198239399979343 0.02994476169528914599737845 1.3855007851523231110491