# geometry NO_DATA 620
#  x  y  z
2.483598530864731479539387 0.01479912283886267512778012 1.282134363888032924094773
2.491799265432365295680484 0.03173098703692764366302015 1.289666524073163289543231
2.491799265432365295680484 -0.002132741359202300780034678 1.289666524073163511587836
2.480525310989842857622989 -0.01203984879255584616863928 1.292565159782398831467276
2.476414915821322892952594 0.006423804105575474550360315 1.285130319564797840570236
2.480525310989842857622989 0.02488745700370679353463643 1.292565159782398831467276
2.483052778197865073650519 -0.01703232676084287175455323 1.282787580666466586976071
2.491436342812586968165078 -0.03359853086473164190950413 1.290237373367286943803833
2.482021686316433051189279 -0.01856411546090921960150411 1.283818672547897943303497
2.485283819650609959950316 -0.03513031956479798628700806 1.292202237162620281907266
2.482021686316433495278488 0.01856411546090922307095106 1.283818672547898165348101
2.485283819650609515861106 0.03513031956479799322590196 1.292202237162620281907266
2.483052778197864629561309 0.01703232676084287522400018 1.282787580666466809020676
2.491436342812586524075869 0.03359853086473164190950413 1.290237373367286943803833
2.475214966250009140935617 -0.0001004625627778983675084806 1.274684571187212789311616
2.475032136202921506651364 0.0002651975313983065993088395 1.274766938671523019976917
2.474001044321489928279334 0.001796986231464654717310259 1.275798030552954376304342
2.473152782487145984191557 -0.0001004625627778980151427746 1.276746754950075501966467
2.533720446532507608594642 0.01625328982279146405875991 1.28273953171222165892118
2.541860223266253715479479 0.03330706968863231254296409 1.29105973322320455309864
2.541860223266253715479479 -0.0008004900430493794381142658 1.29105973322320455309864
2.533060918174533160396322 -0.01750404220481754924421125 1.282673804975359210800434
2.54161938267735454388685 -0.03372044653250751145012742 1.291025581056242987898486
2.524534028241612659826387 -0.03378359567231004056964139 1.290266922994377507549757
2.524534028241611771647968 0.03378359567231004056964139 1.290266922994377285505152
2.533060918174533160396322 0.01750404220481755618310515 1.282673804975359210800434
2.54161938267735454388685 0.03372044653250751145012742 1.291025581056242987898486
2.525161982029685781014905 -0.0004502623389767025489406616 1.274387755631337437733919
2.524743294260610060320005 0.0003871131991741819404137526 1.274356181061436332768722
2.51621640432768955975007 0.01479912283886267339305665 1.281949299080454851562649
2.508108202163844779875035 0.03191605184450604926205131 1.289573991669374253277169
2.508108202163844779875035 -0.002317806166780699006491062 1.289573991669374475321774
2.551997806931202816826953 -0.04728573038995308175369559 1.299283537321156645205633
2.552073597483866862489776 -0.0153853224143067832119236 1.29856707464231302395774
2.551997806931202816826953 0.01651508556133951532984838 1.299283537321156645205633
2.551357134805023463286489 -0.04856707464231295456880133 1.299076848899219038813158
2.551357134805023019197279 0.04856707464231297538548304 1.299076848899219038813158
2.550716462678843221567604 0.0481536977984377695394258 1.298870160477281432420682
2.551432925357686620770892 0.01625328982279147099765382 1.298360386220375417565265
2.550716462678843221567604 -0.01564711815285482754411817 1.298870160477281432420682
2.395588386833777505557919 0.03956165386034213304888851 1.343973267026564943904532
2.391176773667554655844469 -0.01666666666666681562158914 1.340369213763948685880223
2.395588386833777505557919 0.006228320527008801912871583 1.343973267026564943904532
2.388003329966946530760197 0.01031977926545094362276167 1.341176773667554389390943
2.389241499432561699478583 -0.01419032773543666553495157 1.345588386833777239104393
2.389241499432561699478583 0.0348298862663387054361408 1.345588386833777239104393
2.395303676016547811400415 -0.04117677366755442824874933 1.344496116112942063480773
2.392130232315940574494562 -0.04117677366755442824874933 1.345303676016548211080703
2.392130232315940574494562 0.04117677366755427559308345 1.345303676016547989036098
2.395303676016547811400415 0.04117677366755427559308345 1.344496116112942063480773
2.44014181569411103822631 0.002751570316036667379622216 1.319567302797240992973116
2.445070907847055607930997 0.02622671934348067002140681 1.324347329135648010378645
2.445070907847055607930997 -0.02072357871140733179271542 1.324347329135648010378645
2.434836366015982633825843 -0.02471396911146993974339736 1.328027883655205076962602
2.443789109391328651099684 -0.0401418156941106690771548 1.330023078855236295936493
2.423098791502260596075757 -0.03457215341735927344180013 1.338957898265320967112757
2.423098791502260596075757 0.03457215341735926650290622 1.338957898265320967112757
2.434836366015982633825843 0.02471396911146993974339736 1.328027883655205076962602
2.443789109391328651099684 0.0401418156941106690771548 1.330023078855236295936493
2.431189072318764576863259 -0.001238820084025939270017114 1.31757210759720955195462
2.427165421096362685204895 0.006808482360777331002243962 1.320356938735585350386259
2.415427846582640647454809 0.01505154685945452042172832 1.331286953345701462581019
2.407713923291320501363089 0.03295703361014712395871129 1.33943213681744177634414
2.407713923291320501363089 -0.002853939891238083548935522 1.33943213681744177634414
2.476044137601978611940012 -0.04033170276924787078787205 1.314498902215857745190419
2.464498902215857434327972 -0.04033170276924787078787205 1.324208020707209332300636
2.464498902215857434327972 0.04033170276924787772676595 1.324208020707209554345241
2.476044137601978611940012 0.04033170276924787772676595 1.314498902215857745190419
2.47792461938761787720864 -0.01724123199700573066950327 1.304834148615376054891613
2.471213532616872932123897 0.006423804105575477152445529 1.309668297230752287418909
2.47792461938761787720864 0.03008884020815668150494737 1.304834148615376054891613
2.459668297230752198601067 0.002751570316036668246983954 1.31937741572210409657373
2.454834148615375966073771 0.02641660641861787867101796 1.324252385598079673201255
2.454834148615375966073771 -0.02091346578654453697287963 1.324252385598079673201255
2.586621326318133018418166 0.01123757809200824978046462 1.327330796061204187807903
2.593310663159066109528794 0.03119223774347486613511826 1.33459358159960861378579
2.593310663159066553618004 -0.008717081559458363104742062 1.334593581599608391741185
2.577284668618579743792907 -0.03662132631813327932057689 1.32064145922027087465267
2.577284668618579743792907 0.03662132631813328625947079 1.32064145922027087465267
2.570595331777646208593069 -0.01666666666666666296592325 1.313378673681866670719387
2.56125867407809293396781 -0.02876399609617350666690427 1.306689336840933357564154
2.56125867407809293396781 0.004569337237159827938559609 1.306689336840933357564154
2.625208322821580342321113 0.0003591007305889591769317015 1.325150777909008592558848
2.625373486958731739093764 -2.877245628601899328502522e-05 1.325344714502446175075079
2.622080105089056978329154 -0.006557991283063332316194405 1.333692434063922238607347
2.618621559082231264881102 -0.0235837586803189572237649 1.341846217031961163712594
2.618621559082230820791892 0.01046777611419229953026999 1.341846217031961163712594
2.625112708986305332103939 -0.0005503284011392603654322375 1.325083936530019546040648
2.616764989424829046527066 -0.01718822261151991409589002 1.330717111804166741251265
2.613567221390429740068839 -0.0336924340639222982818346 1.339131672744632073346338
2.616764989424829046527066 0.01718822261151990715699611 1.330717111804166741251265
2.613567221390429295979629 0.0336924340639222913429407 1.339131672744632073346338
2.625112708986305332103939 0.0005503284011392528844372474 1.325083936530019546040648
2.624947544849153935331287 -0.0001624552142642821681104565 1.324889999936581963524418
2.624851931013878925114113 2.877245628601154617135296e-05 1.324823158557593139050823
2.61650421145240219544803 0.01123757809200824804574115 1.330456333831740112216835
2.608252105726201364177541 0.0280666999729392019347074 1.336156350484876131901046
2.608252105726201364177541 -0.005591543788922700639054675 1.336156350484876131901046
2.296754231683415525822056 0.04231974174404162791773842 1.395565510060626124300143
2.293508463366830341101377 -0.01666666666666649643246956 1.392914102555435684749341
2.296754231683415525822056 0.008986408410708295046998018 1.395565510060626124300143
2.291355766502459090361299 0.01236127293792420311913105 1.393508463366830207874614
2.292448837954672580252691 -0.01448052376223968665258646 1.396754231683414726461478
2.292448837954673024341901 0.03920306963808792288794791 1.396754231683415170550688
2.296526503006900643555355 -0.04350846336683038273474011 1.395932142195505765158714
2.294373806142528948726067 -0.04350846336683038273474011 1.396526503006900066239382
2.294373806142529392815277 0.04350846336683056314598161 1.396526503006900288283987
2.296526503006900643555355 0.04350846336683054926819381 1.395932142195505765158714
2.337649307141290044853577 0.007495656466042431922969236 1.37443185442506465854251
2.343824653570644844791104 0.02847829694066567052246342 1.380337669562063940276175
2.343824653570644844791104 -0.01348698400858075636954414 1.380337669562063940276175
2.333912211499002076209308 -0.02198171437396571892275432 1.379596237691045335083118
2.342745081782006799642204 -0.0376493071412898894223531 1.383843602873738420910854
2.323420891261690712781274 -0.03433240723267581839817097 1.389493197116962619475089
2.323420891261690712781274 0.03433240723267579064259536 1.389493197116962619475089
2.333912211499002964387728 0.02198171437396564953381528 1.379596237691045335083118
2.342745081782006799642204 0.03764930714128986860567139 1.383843602873737754777039
2.328816436858285321420681 -0.0009990738993425265102726884 1.370184489242372016803984
2.326158913004636286103732 0.004315973807956491499482343 1.371842939196679100888332
2.315667592767324922675698 0.01547794504387770171682792 1.381739898622596385280303
2.307833796383662594564612 0.03314368560988684847545827 1.389978408094206141498717
2.307833796383662150475402 -0.002187795522131417286226807 1.389978408094206141498717
2.3814856069476548761088 -0.03800200807704455507884944 1.36799238398159594964909
2.36799238398159594964909 -0.03800200807704455507884944 1.380073545547950475409493
2.36799238398159594964909 0.03800200807704454120106163 1.380073545547950253364888
2.38148560694765443201959 0.03800200807704453426216773 1.367992383981595505559881
2.382985441893595623952251 -0.01101556214492678889560473 1.355998995961477548988228
2.375491214889014379707532 0.01031977926545107372702237 1.361997991922955453247823
2.382985441893595623952251 0.03165512067582895716633118 1.355998995961477548988228
2.361997991922955453247823 0.007495656466042451004927472 1.374079153489310201052831
2.355998995961477326943623 0.02883099787642034311785366 1.380161319094186822553638
2.355998995961477326943623 -0.0138396849443354133524231 1.380161319094186822553638
2.639433276192908905954937 0.00513242902212581071641484 1.371466271651488044724942
2.644716638096454630613152 0.02789903854836738375522209 1.377082457592338382568187
2.644716638096454630613152 -0.01763418050411568946400642 1.377082457592338382568187
2.633104309121589103881433 -0.03943327619290823427000703 1.366182909747942320066727
2.633104309121589103881433 0.03943327619290817181996189 1.366182909747942320066727
2.627820947218043379223218 -0.01666666666666673235486229 1.360566723807091982223483
2.621491980146724021238924 -0.01712471509015515286344922 1.355283361903545813476057
2.621491980146724021238924 0.01620861824317818000729119 1.355283361903545813476057
2.681783814099860663304753 0.01212950718382563644603955 1.380345693083965041836336
2.687489037437799765939417 -0.000719060507947369810868854 1.386769976929851821978446
2.692097205946436311307934 0.009935397525220825490355203 1.395462840517158520370344
2.691000151117134198130998 -0.01886077632527147218688413 1.397731420258578882709344
2.691000151117134198130998 0.03873157137571312663704148 1.397731420258578882709344
2.679227767949964533755747 -0.0172415994836174688020769 1.378508707442016589794775
2.670534904362657613319243 -0.03318920564233675957188652 1.381434452207053187322572
2.677699119021190288236767 -0.0454628405171589589084391 1.391964301436308781845241
2.670534904362657613319243 0.033189205642336724877417 1.381434452207053187322572
2.677699119021190288236767 0.04546284051715896584733301 1.391964301436308781845241
2.679227767949964533755747 0.01724159948361743063816043 1.378508707442016589794775
2.673522544612025431121083 -0.004393031791844461894647189 1.372084423596130253741876
2.670966498462129301572077 0.0007190605079473311048512962 1.37024743795418157965571
2.662273634874822381135573 0.00513242902212583673726698 1.373173182719218399228112
2.656136817437411146158865 0.0261921274806369702714548 1.377935913126203448797469
2.656136817437411146158865 -0.01592726943638524822466351 1.377935913126203448797469
2.236562245304178908611448 0.009527885189972520180168303 1.426535030624139555044394
2.243281122652089454305724 0.02942346382748564984077611 1.432913429204549338180641
2.243281122652089454305724 -0.01036769344754058172486388 1.432913429204549338180641
2.224160656922845369365405 -0.02080407762425814238715915 1.444964734547103946127322
2.219633226640766565651575 0.002458724803283408345822014 1.43992946909420815870817
2.224160656922845813454614 0.02572152723082504061080655 1.444964734547103946127322
2.233910606693088940488678 -0.02053251304867829626910058 1.430681694722242491835118
2.242562407232004506596468 -0.03656224530417979262653105 1.435764104522811557274053
2.22899808282722844410273 -0.02389973683870679627139211 1.435594218588103432310277
2.230545912434452660022544 -0.03992946909420830303716343 1.444246019127019220462671
2.22899808282722844410273 0.02389973683870671300466526 1.435594218588103210265672
2.230545912434452660022544 0.03992946909420821977043659 1.444246019127019220462671
2.233910606693088940488678 0.02053251304867826504407802 1.430681694722242713879723
2.242562407232004506596468 0.03656224530417977180984934 1.435764104522811779318658
2.227910444765263342503658 -0.0006369344111651914367225324 1.421452620823570711650063
2.225977521574257878000935 0.003228911970846426796044604 1.42274860960341120730277
2.221064997708396937525777 0.006596135760874874756631847 1.427661133469271925733324
2.218085397033542349731761 -0.0006369344111652452131502877 1.431277668555291926466566
2.283969171001572817658598 -0.03702683563227739116374693 1.419455201199277372126062
2.269455201199277460943904 -0.03702683563227739116374693 1.432552477127597256867375
2.269455201199277460943904 0.0370268356322773495303835 1.432552477127597256867375
2.283969171001573261747808 0.0370268356322773495303835 1.419455201199277372126062
2.285514521788452046990869 -0.007998896027686691612146319 1.406486582183861244743639
2.277487134170018467926866 0.01236127293792398801342003 1.412973164367722356260515
2.285514521788452491080079 0.0327214419035347162112437 1.406486582183861244743639
2.262973164367722667122962 0.009527885189972497628763115 1.426070440296042018957223
2.256486582183861333561481 0.02988805415558322756131027 1.432681134040500570137056
2.256486582183861333561481 -0.01083228377563818373152671 1.432681134040500570137056
2.69691301319929621627125 -0.01034053175082382328153763 1.406250054258625370451341
2.698456506599648196953467 0.01990581478180512842168781 1.407869628316194665629268
2.698456506599648196953467 -0.04058687828345278192365697 1.407869628316194665629268
2.695090872028925943482136 -0.04691301319929561813859564 1.404706560858273167724519
2.695090872028925943482136 0.04691301319929561813859564 1.404706560858273167724519
2.693547378628573518710709 -0.01666666666666665602702935 1.403086986800703872546592
2.691725237458202801832385 0.006848410724516450394372402 1.401543493400351891864375
2.691725237458202801832385 0.04018174405784977892830412 1.401543493400351891864375
2.735356610912051067430184 0.01399590367950758786064203 1.429974674261035971767342
2.742678305456025533715092 0.0326858479248919794879491 1.437984264890148633497802
2.742678305456025533715092 -0.004694040565876802899303311 1.437984264890149077587012
2.715945839902496494744355 -0.03190920657831701479079101 1.413922562323778331361268
2.730888804402296532458649 -0.0353566109120510563279538 1.427530145329998889636158
2.706600867779805241752911 -0.04655259566626596123839477 1.409763935237725362981109
2.706600867779804353574491 0.04655259566626596123839477 1.409763935237725362981109
2.715945839902496494744355 0.03190920657831702172968491 1.413922562323778331361268
2.730888804402296532458649 0.03535661091205106326684771 1.427530145329998889636158
2.7204136464122514738051 -0.01321926233293262836765436 1.416367091254815635537057
2.712792376456426346464923 0.00202327757871772562561774 1.410769098877707961037231
2.703447404333734205295059 -0.01034053175082382848570806 1.406610471791654770612467
2.701723702166867191465371 0.01954539724877546805203998 1.408049837082709254687529
2.701723702166867191465371 -0.04022646075042312502345609 1.408049837082709476732134
2.759843044751850271723015 -0.03631699574365540583720247 1.446160040495506393654068
2.760681461632665367744721 -0.01066358141930973460476118 1.442320080991012609672453
2.759843044751850715812225 0.01498983290503603550691825 1.446160040495506393654068
2.756841502128172027852315 -0.04232008099101242787343224 1.444824659001926692170059
2.756841502128172471941525 0.0423200809910123446067054 1.444824659001926692170059
2.753839959504493783981616 0.0396493180038532677667007 1.44348927750834699068605
2.757679919008987567963231 0.01399590367950749071612737 1.440984699497432908188443
2.753839959504493783981616 -0.0116575106448381822510374 1.44348927750834743477526
2.2348997129931387206625 -0.008446667601343126052793053 1.493346380594481992432065
2.227430285604846460500994 0.01157942692095431831689201 1.486692761188963984864131
2.2348997129931387206625 0.03160552144325178003381183 1.493346380594481992432065
2.225083351667308750876373 -0.04054517618188845790028196 1.465520655932333937698786
2.222174275337851501177511 -0.02723793737085258848118485 1.475533703193482537585624
2.231569910222606090144382 -0.03669276118896412641756655 1.487472957951093466277825
2.222174275337851945266721 0.02723793737085247745888239 1.475533703193482759630228
2.231569910222606978322801 0.03669276118896411253977874 1.487472957951093466277825
2.225083351667309194965583 0.04054517618188836769466121 1.465520655932334159743391
2.223852803379005482753428 -0.02141978471193830418917159 1.454727411909055856398254
2.219017519553086348338411 0.002458724803283399238523765 1.459454823818111757205429
2.223852803379005926842638 0.02633723431850518853503118 1.454727411909055856398254
2.216108443223629542728759 0.003359427855630688162374975 1.469467871079260357092267
2.218034650720091427444913 -0.007211842848555139774691103 1.474753506431353056171929
2.787972684473706497243484 0.008109216736079703086170767 1.474415257227667197525989
2.793986342236853381848505 0.02941523454311920082737686 1.480789541165893341556625
2.793986342236853381848505 -0.0131968010709597963897588 1.480789541165893341556625
2.780321218193864574175223 -0.03797268447370615723768239 1.468401599464520090876363
2.780321218193865462353642 0.03797268447370616417657629 1.468401599464520090876363
2.774307560430718133659411 -0.0166666666666666594964763 1.462027315526293946845726
2.76665609415087709876957 -0.02269089694560347258978084 1.4560136577631468401961
2.76665609415087709876957 0.01064243638772986028095957 1.4560136577631468401961
2.829586703023471372375752 0.008167385119007318852735189 1.478580682095536946718539
2.833418890350991148352477 -0.0005030104639669451824582347 1.482915879887024113159555
2.835329771291941192146169 0.004324772345868104286847888 1.491500718452340779052179
2.833408464905371904052345 -0.02050927943980587059291665 1.495750359226170278503787
2.833408464905371904052345 0.02915882413154207222771852 1.495750359226170278503787
2.82797452376645175320391 -0.01139174363304564299714805 1.477471513302484718010987
2.819389685201134643222076 -0.02755539983574535958799068 1.481777626902507805084497
2.82291274539910475027682 -0.04150071845234063611096431 1.491471634260876699684673
2.819389685201135087311286 0.02755539983574537693522544 1.481777626902507805084497
2.82291274539910475027682 0.04150071845234064304985822 1.491471634260876699684673
2.82797452376645175320391 0.01139174363304567075272367 1.477471513302484718010987
2.824142336438931977227185 -0.002721348050071380371417451 1.473136315510997551569972
2.822530157181912358055342 0.0005030104639669738053955883 1.47202714671794532286242
2.813945318616595248073509 0.008109216736079708290341195 1.476333260317968631980534
2.806972659308297757263517 0.02749723145281776637283144 1.4817485427110441698062
2.806972659308297757263517 -0.01127879798065836193521339 1.481748542711043947761596
2.236329063590494659052865 -0.01313491134459313265658853 1.515436814070541871046771
2.243164531795247107481828 0.006527485579235187129754081 1.510367223526825952717445
2.243164531795247107481828 -0.03279730826842148366795371 1.51036722352682617476205
2.240620911922391211845706 -0.03632906359049498795643629 1.508601345865789200573204
2.240620911922390767756497 0.03632906359049502265090581 1.508601345865789200573204
2.233785443717638763416744 -0.01666666666666663521034764 1.51367093640950511890253
2.238077292049535316209585 -0.002091509488550648797333675 1.506835468204752448428962
2.238077292049535316209585 0.0312418238447826901449389 1.506835468204752448428962
2.288614437644597821019943 -0.004229572241569720843223923 1.542844009886167544465252
2.280041203993047993492382 0.01479178086409817585722415 1.535688019772334822476978
2.288614437644597821019943 0.03381313396976606822086353 1.542844009886167544465252
2.272885213879215271504108 -0.03568801977233455186011568 1.527943220880537689154721
2.272885213879215271504108 0.03568801977233457267679739 1.527943220880537467110116
2.257155990113832721988274 0.005886441761074731951475236 1.513042431874907389754981
2.264311980227665443976548 -0.01313491134459315347327024 1.520787230766704967166447
2.257155990113832721988274 -0.0321562644502610475716331 1.51304243187490783384419
2.844376161534341029835105 -0.005120153973076303245692831 1.511397094812453545387143
2.847188080767170337281868 0.02258934089459855437675984 1.514358431926419612523205
2.847188080767170337281868 -0.03282964884075115219452812 1.514358431926419612523205
2.841017133606771327691831 -0.04437616153434152665990808 1.508585175579624237940379
2.841017133606771327691831 0.04437616153434151972101418 1.508585175579624237940379
2.838205214373942020245067 -0.01666666666666667684371106 1.505623838465658170804318
2.834846186446372318101794 -0.001299066119790388525515046 1.502811919232829085402159
2.834846186446372318101794 0.03203426721354294542942753 1.502811919232829085402159
2.884952227430374271932578 0.01490784315484398360462936 1.530835027480381471676196
2.892476113715187313601973 0.03319340391855142569088599 1.539098396106324040388813
2.892476113715187313601973 -0.003377717608863438532307288 1.539098396106324040388813
2.871356462283117139122623 -0.02861081341734387009645424 1.519737568186076526188799
2.884852421943268740989197 -0.03495222743037411372579726 1.532354116090316908938007
2.862213681901263573337246 -0.0436585859869697695545554 1.51798693824805885910223
2.862213681901263573337246 0.04365858598696975567676759 1.51798693824805885910223
2.871356462283117139122623 0.02861081341734383887143167 1.519737568186076526188799
2.884852421943269185078407 0.03495222743037408597022164 1.532354116090317130982612
2.871456267770222670066005 -0.01032525265363644709215585 1.518218479576141088926988
2.865484194394883665779616 0.001618894097040743775342553 1.513865300297843052845792
2.856341414013030544083449 -0.005120153973076303245692831 1.512114670359825385759223
2.853170707006515094406041 0.02187176534722679033251325 1.514717219700105532709244
2.853170707006515094406041 -0.03211207329337939508917543 1.514717219700105532709244
2.906726695059000498133628 -0.0409082988449804910158214 1.547634993903981293073002
2.906910856673528886773283 -0.01230497770368537031882017 1.545269987807962097647874
2.906726695059000498133628 0.01629834343760975384762801 1.547634993903981293073002
2.90454585057750991339276 -0.04526998780796179927543577 1.546755582148069851911032
2.90454585057750991339276 0.04526998780796179233654186 1.546755582148069851911032
2.902365006096019328651892 0.0435111642961391181794184 1.545876170392158854838272
2.904730012192038302032415 0.01490784315484399921714065 1.544390576052050878530508
2.902365006096019328651892 -0.01369547798645111974513711 1.545876170392158854838272
2.296773112328112986801898 -0.01562219359864897884337953 1.553749124205896503525537
2.298386556164056404583107 0.01448425206279690437283225 1.552657916903961821120106
2.298386556164056404583107 -0.04572863926009494706104164 1.552657916903961821120106
2.297449113262772346644169 -0.04677311232811254965158199 1.552135680369953085744328
2.297449113262772346644169 0.04677311232811265373499054 1.552135680369952641655118
2.29583566942682848477375 -0.0166666666666665796991964 1.553226887671887768149759
2.296511670361488288705232 0.01156489319221079906108152 1.551613443835944128323945
2.296511670361488288705232 0.04489822652554414927905668 1.551613443835944128323945
2.347148437973471502004941 0.03346825710674763976193447 1.586319819133276576295088
2.34429687594694247110283 -0.01666666666666682949937695 1.588882566526845341314811
2.347148437973471502004941 0.0001349237734143114990532919 1.586319819133276576295088
2.335325493491264392531548 -0.001276098244690265478065716 1.586601591735954386308549
2.329205673062114456683958 0.01096354261360920831491761 1.581757869551494666282565
2.337624552384318654674189 -0.04429687594694267649408914 1.58221024296422152488617
2.321510388851126371889677 -0.02890630752496611832746964 1.573308723629825323087061
2.320957885717652047219417 -0.04429687594694268343298305 1.5714801222516610046398
2.328653169928640132013697 0.02890630752496598648848547 1.579929268173330569879909
2.314838065288502111371827 0.03460943157802347236451368 1.566636400067201506658421
2.337624552384318210584979 0.04429687594694251689952935 1.582210242964221302841565
2.307695284210988351247806 0.00232057131270773037493016 1.560015855523696259865574
2.315390568421976880131297 -0.01562219359864904129342467 1.568465001445365603061077
2.307695284210988351247806 -0.03356495851000583507950381 1.560015855523696481910179
2.36383304052040132958723 -0.03350330139783905258887842 1.597336341918240032455856
2.360912007382840460678608 -0.005497284228025475089074448 1.594672683836480420183079
2.36383304052040132958723 0.02250873294178826894418322 1.597336341918240254500461
2.358248349301080626361227 -0.04467268383648041046862787 1.591922032498143124712442
2.358248349301080626361227 0.04467268383648025087406808 1.591922032498143124712442
2.352663658081759923135223 0.03384406499628538067536709 1.586507723078045106746004
2.355327316163519757452605 0.005838047826471637509471169 1.589258374416382846305851
2.352663658081759923135223 -0.02216796934334194085769454 1.586507723078045550835213
2.937548476989226831079804 0.008766523197934441430367869 1.575168117943073209374916
2.943774238494613726402349 0.02964833352049496897895331 1.581658951369987464730116
2.943774238494612838223929 -0.01211528712462607917932367 1.581658951369987464730116
2.929288416309437259599235 -0.0375484769892271974534026 1.568942356437687202230791
2.929288416309437259599235 0.03754847698922718357561479 1.568942356437687202230791
2.92306265480405125245511 -0.01666666666666667684371106 1.562451523010772946875591
2.914802594124261680974541 -0.02475650071445818084514556 1.556225761505386717686861
2.914802594124261680974541 0.008576832618875160699212223 1.556225761505386717686861
2.978149890738484462104907 0.005206111670392877741053717 1.577056220931908558924306
2.980479529122036730370837 -0.0005468349032880289589675371 1.579932694218748823189458
2.978707243182354247323929 -0.002997736976077453215083768 1.588539445003726457983362
2.97460531885911905192188 -0.02487051531313697397274076 1.594269722501863384422904
2.97460531885911905192188 0.01887504136098205193006194 1.594269722501863384422904
2.976470287555207594465401 -0.008565318036946304239287464 1.575923452651919909328626
2.967863536770229959671497 -0.02468514980032492436845537 1.580580131702530977122478
2.967770854013823900174884 -0.03853944500372617071315418 1.590319650767497039467457
2.967863536770229959671497 0.02468514980032494171569013 1.580580131702530977122478
2.967770854013823900174884 0.03853944500372617765204808 1.590319650767497039467457
2.976470287555207594465401 0.008565318036946344137927412 1.575923452651919909328626
2.97414064917165532619947 -0.002812371463265397972947079 1.573046979365079423018869
2.972461045988378458559964 0.0005468349032880693997085708 1.57191421108509077342319
2.96385429520340126785527 0.008766523197934446634538297 1.576570890135701841217042
2.956927147601700500700872 0.02824556132786653142585642 1.582360337466301780651179
2.956927147601700500700872 -0.0107125149319976398915033 1.582360337466301558606574
2.393997329777755034285747 0.01569771150721277486184135 1.6217003817294579626207
2.387994659555509269210916 -0.01666666666666670459928667 1.626846185531361621556812
2.393997329777754590196537 -0.01763562182612056494779296 1.6217003817294579626207
2.379314762105641634093445 -0.0006931282330690779211815333 1.630007890338711629141244
2.376637534878018875872385 0.004661326222176624678450452 1.628023791344157977789564
2.369508249846625780321574 -0.03147553518974176983702407 1.61392355862730596527399
2.382915354330408241878558 -0.03799465955551004081591771 1.616182189086940113043056