# geometry NO_DATA 904
#  x  y  z
2.446802859922112549639905 0.03077838655678625384704006 1.133975526634673602899284
2.443605719844225365733337 -0.01666666666666666296592325 1.137192053200505537091658
2.446802859922112549639905 -0.0025549467765470824931473 1.133975526634673380854679
2.437045243875559208390769 0.003545714729333930646110185 1.143605719844225099279811
2.433681907984779790865559 -0.02339333844822467922686116 1.146802859922112505230984
2.433681907984780234954769 0.03048476790689253618227283 1.146802859922112505230984
2.440420137221145147066181 -0.04360571984422526720104329 1.134006470577425762513712
2.433859661252479433812823 -0.04360571984422526720104329 1.140420137221145324701865
2.433859661252478989723613 0.0436057198442252741399372 1.140420137221145324701865
2.440420137221145591155391 0.04360571984422528801772501 1.134006470577425762513712
2.493198227905657038405707 0.009153258713427163753562077 1.115955030807770143042035
2.486396455811314076811414 -0.0166666666666666664353702 1.122774857262370362676052
2.493198227905657038405707 -0.02418007461990617779079571 1.115955030807770143042035
2.472981772793810595345576 -0.01016269936834064170627645 1.133144472162150862004637
2.466368861870649631384822 0.003063122477980665617908196 1.136694260607330697609996
2.479652168483973184720526 -0.03639645581131399632024426 1.116030569935029248540559
2.463116878221486505395887 -0.02989248851298796985642703 1.133532577612774261410777
2.462985501817306133176544 -0.03639645581131399632024426 1.123238501840253089625321
2.466237485466469259165478 0.02989248851298798026476788 1.126400184834809525824539
2.45637259089414516921579 0.04349603270167398672008119 1.12678829028543292523068
2.479652168483973184720526 0.03639645581131399632024426 1.116030569935029248540559
2.453251983649163303624618 0.03066869941423495948829014 1.133920683063397882861523
2.456503967298326429613553 0.003839333379227642673026111 1.137082366057954319060741
2.453251983649162859535409 -0.02299003265577966720334402 1.133920683063397660816918
2.542840997479146825099861 0.007208983770942265292824835 1.114367986291795009634598
2.535681994958294271924615 -0.0166666666666666594964763 1.121445489364618408600904
2.542840997479146825099861 -0.02612434956239106237374514 1.114367986291795009634598
2.52593425912257885102008 -0.00282880500476405090728993 1.12876306412734317419222
2.523345525807716427380001 0.002348661624961062652922061 1.129003135817244762861833
2.528709272760485848863254 -0.03568199495829439682470507 1.114472767166809763494939
2.516426594976764796740554 -0.02184413329639178086294393 1.122300468099252546139155
2.512042606093819685497692 -0.03568199495829439682470507 1.115087674211542534408181
2.51896153692477042795872 0.02184413329639178780183784 1.121790341929534751130859
2.509453872778956817768403 0.03616213833809739375269032 1.11532774590144390103319
2.528709272760485848863254 0.03568199495829439682470507 1.114472767166809985539544
2.506918930830951186550237 0.008918941240210554247114239 1.115837872071161918086091
2.513837861661902373100475 -0.01057653043122017133548241 1.122540539789154134808769
2.506918930830951186550237 -0.03007200210265089518335557 1.115837872071161918086091
2.59376300172725482440228 0.01337473634652545408096902 1.119611734619270659862877
2.587526003454509115897508 -0.0166666666666666664353702 1.12545036990051716685457
2.59376300172725482440228 -0.01995859698680788399394181 1.119611734619270659862877
2.578128438649871956300785 -0.002128462942608898289531538 1.130256901592479934492985
2.574967872117979617030414 0.004192670121175731678953014 1.129224798003196639228918
2.581788853732730260048811 -0.03752600345450905761079952 1.119713220178738311005873
2.567698770255950169172365 -0.02298779973045128946496085 1.1222573942715494688116
2.565122187066063652594039 -0.03752600345450905761079952 1.11755234813905390822697
2.572391288928092656362878 0.02298779973045130334274866 1.124519751870701300688893
2.561961620534170869234458 0.03546179627594223809916585 1.116520244549770612962902
2.581788853732730260048811 0.03752600345450907148858732 1.119713220178738311005873
2.557269101862028826133155 0.006988785088590106567285609 1.114257886950619003130214
2.564538203724057829901994 -0.01180634452068546336178656 1.121225290682266173547532
2.557269101862028826133155 -0.03060147412996102461724135 1.114257886950619003130214
2.63657956544227012329884 -0.007164171675420057117111838 1.143743737117690173477058
2.627674177044600156705201 0.01365663589329321400689388 1.137487474235379991682748
2.63657956544227056738805 0.03447744346200648513089959 1.143743737117690173477058
2.621417914162289974910891 -0.03748747423537993062048201 1.131668103563697957980594
2.621417914162290419000101 0.03748747423537994449826982 1.131668103563698180025199
2.606256262882310270612152 0.01333620712739632882537499 1.119592470009706186573339
2.612512525764620008317252 -0.007484600441316937094460293 1.125411840681387776186284
2.606256262882309826522942 -0.02830540801003020995318948 1.119592470009706186573339
2.393147210688692183566673 0.008678417588126732112874251 1.165531206899434568668994
2.386294421377384011861977 -0.01666666666666667684371106 1.172486419482755559684506
2.393147210688692183566673 -0.02465491574520660769676006 1.165531206899434568668994
2.372207683051178239708179 -0.01150680998574465409289846 1.186294421377384278315503
2.364973734036280195169866 -0.03113456469646232877002134 1.193147210688692227975594
2.364973734036280639259076 0.008120944724973027523118319 1.193147210688692227975594
2.379447478518273761949331 -0.03629442137738435325555741 1.16563947662364530977186
2.365360740192067989795532 -0.03629442137738434631666351 1.179447478518274028402857
2.365360740192067545706323 0.03629442137738433937776961 1.179447478518274028402857
2.379447478518273761949331 0.03629442137738434631666351 1.16563947662364530977186
2.43480154972256990220103 0.0005441823234316957476341958 1.165742632600862194180991
2.430308911603859201022715 -0.009529458560853718701588733 1.170779453043004902923485
2.42427634687973547755746 -0.002535670887394073872572742 1.17681201776712862638874
2.422736420274322455270521 0.0005441823234316935792298509 1.177807762049109863156104
2.422328202123197105066765 -0.02674030755095208045091226 1.162798743562343251056745
2.423828968326148025624889 -0.04286279189418704810288219 1.15419331906729394354727
2.41567092238468594800338 -0.01974651987749243692293888 1.171065258044117429747644
2.409230139509436874334369 -0.03387751565676502818469373 1.162088804281474541113539
2.416295637399073381601511 0.01974651987749243692293888 1.168831308286466974522
2.40769021290402385204743 0.03586900422072741151380271 1.163084548563455777880904
2.431809677806810121580838 0.02674030755095208045091226 1.16217402854795559541401
2.419336330207437324446573 0.03387751565676502818469373 1.159230139509436652289764
2.436302315925520822759154 -0.01666666666666666296592325 1.157137208105812886671515
2.433310444009761042138962 -0.003591493376479017955033024 1.153568604052906287904534
2.433310444009761042138962 0.02974183995685431708411173 1.153568604052906287904534
2.4070654978896364184493 0.008253000431469795575289972 1.165318498321106233106548
2.414130995779272925716441 -0.01094933712259094776841906 1.172061002326098666515009
2.4070654978896364184493 -0.03015167467665168937740461 1.165318498321106233106548
2.647862783219066873385827 -0.01539778984091280666923751 1.152771655193810529382858
2.648931391609533392283993 0.0157983267114871553382649 1.152337485216220702710643
2.648931391609533392283993 -0.04659390639331276173784602 1.152337485216220702710643
2.64742637622284693321717 -0.04786278321906661803453176 1.151703046803343788440088
2.64742637622284693321717 0.04786278321906663191231956 1.151703046803343788440088
2.646357767832380414319005 -0.01666666666666666296592325 1.152137216780933615112303
2.645921360836160474150347 0.01151941911235983620476198 1.151068608390466874169533
2.645921360836160474150347 0.04485275244569317254494933 1.151068608390466874169533
2.68860286500299361378552 -0.004113463679833851034672865 1.192716328682827064966432
2.680226939477256653532322 0.01465252701915351930817 1.185432657365654174341785
2.68860286500299361378552 0.03341851771814088878365112 1.192716328682827064966432
2.67294326816008354086307 -0.03543265736565402723723395 1.176684100429037371782215
2.67294326816008309677386 0.03543265736565404111502176 1.176684100429037371782215
2.65728367131717302385141 0.003368200858074568877775778 1.160651872175247678597998
2.664567342634346136520662 -0.01539778984091280146506708 1.169400429111864259112963
2.65728367131717302385141 -0.03416378053990017094054821 1.160651872175247678597998
2.294238059038901322850279 0.01540692380683010564990099 1.221168864767929074233166
2.288476118077801935157822 -0.01666666666666666296592325 1.226941520942316232734015
2.294238059038901322850279 -0.01792640952650323415973332 1.221168864767929074233166
2.276526673770530528884137 -0.007232221947876329992688227 1.238476118077802112793506
2.270339170424358066213699 -0.02904167335901166463463241 1.244238059038901056396753
2.270339170424358066213699 0.01457722946325900811870291 1.244238059038901056396753
2.282718664824131771240445 -0.03847611807780199760786743 1.221184067688646068816638
2.27076922051686036496676 -0.03847611807780199066897353 1.232718664824131948876129
2.27076922051686036496676 0.03847611807780201148565524 1.232718664824131948876129
2.282718664824131771240445 0.03847611807780200454676134 1.221184067688645846772033
2.342122614866481544737553 0.002491908577297884119783333 1.210369293710815252751445
2.334245229732964332924894 -0.01666666666666666990481716 1.218368569155131364567524
2.342122614866481988826763 -0.03084142475603544181206317 1.210369293710815252751445
2.323368092751447289145972 -0.005087607296367513062818055 1.228455700047815124520412
2.320368340903447901268919 0.0009118963996313418380462723 1.230543555496183216746431
2.326378722194755610530592 -0.03424522973296469097181927 1.210502061616922198084012
2.314578811218298781682279 -0.02266617036266552892564974 1.224798488045847122407395
2.30971205552808900307582 -0.03424522973296469791071317 1.214844125059269863697864
2.31550158521323856675167 0.02266617036266552198675583 1.2205891925096059580369
2.306712303680090059287977 0.03842094062970083379049413 1.216931980507637511834673
2.326378722194755610530592 0.03424522973296468403292536 1.210502061616922198084012
2.305789529685149830129376 0.01535174635872892968946335 1.221141276043878454160563
2.311579059370298949716016 -0.006402527604305246339277957 1.226886343494214770544204
2.305789529685149830129376 -0.02815680156733941369440188 1.221141276043878676205168
2.376408993820660064955064 0.0001568913961736112907315727 1.223747897575512721957125
2.375822165457459611559443 -0.001330548122573684032346475 1.224491617334886317536302
2.374964984873989326530364 -0.0003838130443672557387535527 1.225348797918356824609987
2.374694632653718606718485 0.0001568913961736099625839114 1.225462258742453736104494
2.367738151659376732993678 -0.01815410618541396514658004 1.216407603536803438970537
2.361906300968417582453185 -0.03466388145590700714526733 1.20799582450538345312907
2.366553205842569340688897 -0.0172073711072075405392745 1.217727024975770122594554
2.358739544264756737845801 -0.03349022472950695383797637 1.209529550353590110489677
2.366880971075906003875389 0.01720737110720751972259279 1.217264784120273723999617
2.358469192044485573944712 0.03371714637770056866017399 1.209643011177687021984184
2.36999031476650090510816 0.01815410618541395126879223 1.21607983830346655373944
2.361319472605217573146774 0.03349022472950694689908246 1.208739544264757048708248
2.37057714312970091441457 -0.01666666666666667337426411 1.215336118544092736115658
2.364158464075541310478457 -0.02684292852983764104957132 1.207668059272046345853369
2.364158464075541310478457 0.006490404803495684882275185 1.207668059272046345853369
2.35814142681114891075822 0.001963825222033773083840646 1.210105252033183198534516
2.366282853622298620877018 -0.01508665448900013868194225 1.217840485799866812044456
2.35814142681114891075822 -0.03213713420003404264146951 1.210105252033183198534516
2.696156786329237053934094 -0.01542606977635493231693076 1.204463512115919954226229
2.698078393164618393740284 0.01406404988621438520435269 1.203162203725693935041363
2.698078393164618393740284 -0.04491618943892425330766116 1.203162203725693935041363
2.697071323340861859207962 -0.04615678632923598395665366 1.202541905280537948286224
2.697071323340861859207962 0.04615678632923598395665366 1.202541905280538170330829
2.695149716505480075312562 -0.01666666666666666296592325 1.203843213670764189515694
2.69606425351710576876485 0.01080931334838950222398957 1.201921606835382183575689
2.69606425351710576876485 0.04414264668172283162528302 1.201921606835382183575689
2.747987096338971646503069 0.03829144790649513518943081 1.24030435156752294467708
2.745974192677944181184557 -0.0166666666666666664353702 1.24213282029222016333847
2.747987096338971646503069 0.004958114573161797114519977 1.24030435156752294467708
2.736921084406868320826334 -0.001439549875485078567205477 1.238360634282354100221824
2.729880879796820369875832 0.01264085934461141660922756 1.232759979547791040488391
2.740689706418300009005407 -0.04597419267794475294941492 1.236848334032575325025505
2.722267321401229622779283 -0.03074707588676316161180324 1.224327169721870944840703
2.724023039751632957461425 -0.04597419267794475294941492 1.224643338196789388305774
2.731636598147223260468763 0.03074707588676316508125019 1.233076148022709483953463
2.716982835141585006510923 0.03477288320881841143794588 1.219042683462226106527737
2.740689706418300009005407 0.04597419267794473907162711 1.236848334032575325025505
2.707613558395590480643023 0.002680146765796811384602316 1.210293705161387567414977
2.715227116791181671828781 -0.01542606977635492884748381 1.218726514987307663062666
2.707613558395591368821442 -0.03353228631850667385005949 1.210293705161387567414977
2.759882982727233979858283 -0.03822499636722973687108507 1.248107979094463582114827
2.757779522721921949823809 -0.008675704844969545082022933 1.246215958188927164229653
2.759882982727233979858283 0.0208735866772906467070392 1.248107979094463582114827
2.755887501816385309894031 -0.04621595818892685475498538 1.24426660670873867609032
2.755887501816385309894031 0.04621595818892685475498538 1.244266606708738898134925
2.751892020905536639929778 0.03853321341747723699500128 1.240425234323013992110418
2.753784041811073279859556 0.008983921895217048675386096 1.242374585803202258205147
2.751892020905536639929778 -0.02056536962704313964422909 1.240425234323013992110418
2.195102329345778535696354 0.02058173737883377957258446 1.275479408033055372939657
2.190204658691556893757024 -0.01666666666666666296592325 1.280393198035195245765294
2.195102329345778535696354 -0.01275159595449956023704985 1.275479408033055372939657
2.180178718047379504696437 -0.003385214621687747393874446 1.290204658691556982574866
2.175050448057423757575179 -0.0269232066465780878194991 1.295102329345778402469591
2.175050448057423757575179 0.02015277740320258609285631 1.295102329345778402469591
2.185312682669932282664149 -0.04020465869155700339154791 1.275501222013570634672419
2.175286742025754893603562 -0.04020465869155700339154791 1.285312682669932371481991
2.175286742025754893603562 0.04020465869155701033044181 1.285312682669932371481991
2.185312682669932282664149 0.04020465869155701726933572 1.275501222013570856717024
2.242175198455174545131285 0.002863824486730146695601107 1.260688626031555070738932
2.234350396910349534351781 -0.01666666666666666296592325 1.268607110698539708337762
2.242175198455174545131285 -0.0304695088466031861751393 1.260688626031555070738932
2.222621352332084132541468 -0.006791422489864605560594413 1.279412774821948595160848
2.218717109298643741510659 0.001017063577016423915957977 1.282299954278372844385103
2.226540816355296659168062 -0.03435039691034974529415535 1.260797530143487055198648
2.21377948721024297995541 -0.02447515273354769482772042 1.27742611571041231321999
2.209874149688630495802499 -0.03435039691034975223304926 1.266729355698935188812015
2.214811771777031257357748 0.02447515273354770176661432 1.271603194266895719977128
2.205969906655189660682481 0.04012475582319795230912263 1.269616535155359438036271
2.226540816355296659168062 0.03435039691034975223304926 1.260797530143487055198648
2.204937622088400939190933 0.02050183451047471808181832 1.275439456598875587189923
2.209875244176802144835392 -0.002956254646056557383593244 1.280313295166836340399641
2.204937622088401383280143 -0.02641434380258783978789872 1.275439456598875809234528
2.278437657511123148879051 0.0002423765574469974011864726 1.271804719046323306486102
2.276900611173646726825837 -0.003316469232399777648107042 1.273584141941246805629362
2.274945748008438073384241 -0.000593257098018542530434849 1.275539005106455903160168
2.27452793118070495381744 0.0002423765574469970759258208 1.275714445376741501547713
2.268827977740661694383562 -0.02022551245651343920783916 1.265511508508261329097877
2.265090678487999387158425 -0.0366498025657331083504431 1.257056986896204486825468
2.266491226396381009067227 -0.01750230032213220474068827 1.268007863949256019964196
2.258836409791128208013333 -0.03357570989078032669405971 1.259759790245984945045166
2.266873114575452152763546 0.01750230032213221167958217 1.267466371673470426628683
2.258418592963395088446532 0.03392659043135189123052697 1.259935230516270543432711
2.273163311920985307779119 0.02022551245651344614673306 1.265129620329189963356953
2.26355363215052296510521 0.03357570989078034057184752 1.258836409791127985968728
2.274700358258461285743124 -0.01666666666666666296592325 1.263350197434266464213692
2.269426012668323444643192 -0.02058241938214322094835573 1.256675098717133121084544
2.269426012668323444643192 0.01275091395119011539183163 1.256675098717133121084544
2.258036704784323944750213 0.002440018007732272682652752 1.260476722792056136768224
2.266073409568647889500426 -0.01481990575695294083680142 1.268183304219541840396346
2.258036704784323944750213 -0.03207982952163814654999996 1.260476722792056136768224
2.793511018539915014002872 0.01254307695312374161533686 1.269032058413209540503885
2.787022037079829317463009 -0.01666666666666667684371106 1.274782557016476136624306
2.793511018539915014002872 -0.02079025638020959992902092 1.269032058413209540503885
2.77835675209415455810813 -0.0006639033046816055503094867 1.279020655398835915050881
2.776180448568565939382324 0.00368870374649519269100173 1.277508255177929097357037
2.766559563147609424049733 -0.03224924301946963806075885 1.262564082236760309996271
2.780839832784096188333933 -0.03702203707982854724578559 1.264604871809895225709397
2.770565463917752602185374 -0.01624647965748456795997967 1.27122936722243462526194
2.770565463917752602185374 0.01624647965748454714329796 1.27122936722243462526194
2.766559563147609424049733 0.03224924301946962418297105 1.262564082236760309996271
2.780839832784096632423143 0.03702203707982854030689168 1.264604871809895225709397
2.760377358851876739009867 -0.03723624411794396876773661 1.252386397030179399081362
2.758768274971207468126977 -0.008675704844969546816746409 1.254772794060359020207329
2.760377358851876739009867 0.01988483442800488207313769 1.252386397030179399081362
2.762774175741351090351827 0.0006639033046815859262501647 1.263438079046033113428393
2.768389160392164427548778 -0.0118938726063077693934078 1.269716967001527807568095
2.832202745648672692624359 -0.01178319151094110901756284 1.293985937159614074687397
2.825122467084915545143531 0.009522016141620501250564246 1.287971874319228104965873
2.832202745648672692624359 0.03082722379418211325341481 1.293985937159614074687397
2.819108404244529797466612 -0.03797187431922828537711467 1.281746457096261782027113
2.819108404244529797466612 0.03797187431922827843822077 1.281746457096261782027113
2.806014062840386458219655 0.01349291419252348148138942 1.269506977032909267322225
2.812028125680772205896574 -0.00781229346003813572563157 1.275732394255875590260985
2.806014062840386458219655 -0.02911750111259974599375866 1.269506977032909267322225
2.14259920971840367442951 0.005428917393855634855592829 1.312829707675451595960681
2.135198419436807437676862 -0.01666666666666662827145373 1.320313668415331598282592
2.14259920971840367442951 -0.02790441593947769541306236 1.312829707675451595960681
2.119882905918612614470931 -0.01396436036972413877177424 1.335198419436807615312546
2.111968182682013139839228 -0.03249611313986545957366303 1.342599209718403852065194
2.111968182682013139839228 0.004567392400417140396751137 1.342599209718403852065194
2.127806507613667186262774 -0.03519841943680794560389558 1.312921756592191346868503
2.112490994095471918967633 -0.03519841943680794560389558 1.327806507613667585943062
2.112490994095471918967633 0.035198419436807987237259 1.327806507613667807987667
2.127806507613667186262774 0.035198419436807987237259 1.312921756592191568913108
2.181105539013944216719665 0.0004099133247017065252715273 1.319304374310756866606198
2.17836020450049794305869 -0.005900582351593818865309604 1.322459622148904667682245
2.174658826518914178649311 -0.00150217361157328581355852 1.326161000130488210047019
2.173702783050776687900907 0.0004099133247016969842924095 1.326707130273923951335746
2.170314774756535225463949 -0.0229771623429621853207383 1.314414192404941950087505
2.168417210783340820512421 -0.03923391568492715086868827 1.305875902409257882652582
2.166120536523230111214389 -0.01857875360294165487107243 1.31940462577999451099231
2.159031150247405328457262 -0.03374324665803503375816064 1.310813065892596274153448
2.16661339677495146105457 0.01857875360294164793217853 1.318115570386525714496884
2.158075106779267393619648 0.0348355069449066134801285 1.311359196036032015442174
2.176462640527303538107162 0.02297716234296219572907916 1.313921332153220600247323
2.165671876269894546851447 0.03374324665803503375816064 1.30903115024740568372863
2.179207975040749367678927 -0.01666666666666666296592325 1.310766084315072799171276
2.174565076554109133155634 -0.01415129893676059583129678 1.305383042157536310767796
2.174565076554109133155634 0.01918203439657273703944362 1.305383042157536310767796
2.157582246527546487868676 0.005066004901954264567909281 1.312648251429501033982206
2.165164493055092620465985 -0.0131028353762856868136577 1.319950755923430474325642
2.157582246527546487868676 -0.031271675654525633858416 1.312648251429501033982206
2.836120615073259187965959 -0.0136226545700644831315973 1.31540139097504171772357
2.843060307536628972258086 0.005831293836528207361058485 1.309983704559972483849606
2.843060307536628972258086 -0.03307660297665721005344608 1.309983704559972483849606
2.839487982274106148139481 -0.03612061507325935866274946 1.308461698511671489342234
2.839487982274106148139481 0.03612061507325939335721898 1.308461698511671489342234
2.832548289810735475668935 -0.01666666666666662827145373 1.313879384926740723216199
2.835915657011582879931666 -0.004357368785120098626795215 1.306939692463370272790257
2.835915657011582879931666 0.02897596454821323511130693 1.306939692463370494834862
2.890282554095170652885827 -0.00238786565974510867071956 1.342670419754915522858596
2.881135647415211664679191 0.01628630718341936289839111 1.33534083950983095689935
2.890282554095170652885827 0.03496048002658384140639569 1.342670419754915300813991
2.87380606717012732076455 -0.03534083950983114841282173 1.327525759136549909911196
2.87380606717012732076455 0.03534083950983113453503393 1.327525759136549909911196
2.857329580245083988643273 0.005051518273099947671511689 1.312381098518184296963796
2.864659160490168332557914 -0.01362265457006452996913115 1.32019617889146534395195
2.857329580245083100464853 -0.03229682741322899286462444 1.312381098518184296963796
2.09235211327104808631816 0.003375241671829566116047605 1.361023128400780990432395
2.084704226542096527907688 -0.01666666666666671153818058 1.369039734106962891146964
2.09235211327104808631816 -0.02995809166150376415260759 1.361023128400780990432395
2.068863938809996305678851 -0.01501390879753356638603989 1.384704226542096794361214
2.060671537806848085949696 -0.03305146867296354651344359 1.392352113271048574816291
2.060671537806848085949696 0.003023651077896459711535915 1.392352113271048352771686
2.077078650289326589017946 -0.03470422654209668472669037 1.361414157854192952257222
2.061238362557226366789109 -0.03470422654209668472669037 1.377078650289326633426867
2.061238362557226366789109 0.03470422654209664309332695 1.377078650289326633426867
2.077078650289326589017946 0.03470422654209663615443304 1.361414157854192952257222
2.108203142119383421970724 -0.0368346763514659572558152 1.356851988970912303855698
2.106851988970912081811093 -0.0368346763514659572558152 1.35785416320244545218543
2.106851988970912081811093 0.03683467635146588092798225 1.35785416320244545218543
2.108203142119383421970724 0.03683467635146588092798225 1.356851988970912969989513
2.109284968121209580260711 -0.03413237005452347122558265 1.356582661824267121986054
2.114516476797005495313897 -0.01396436036972425326352365 1.363165323648534155154266
2.109284968121209580260711 0.006203649315075037556921345 1.356582661824267121986054
2.113165323648534155154266 -0.01466231820360048600238034 1.364167497880067081439392
2.106582661824266899941449 0.005505691481198807420149866 1.358587010287333196600912
2.106582661824266899941449 -0.03483032788839969529082197 1.358587010287332974556307
2.899465575906329917188486 -0.01649273672845257693309051 1.350621389062777399914239
2.899732787953164692140717 0.01630617251121043581596481 1.350441141985049053886314
2.899732787953164692140717 -0.04929164596811558274325193 1.350441141985049497975524
2.899542608211540972718012 -0.04946557590632968959276639 1.350354177015942624962008
2.899542608211540972718012 0.04946557590632966877608467 1.350354177015941958828193
2.899275396164706197765781 -0.01666666666666668378260496 1.350534424093670304856118
2.899352428469917697384517 0.01575188308974903583781213 1.350267212046835085814678
2.899352428469917697384517 0.04908521642308237564744644 1.350267212046834863770073
2.944113359027767273801146 0.01589487363882391771086056 1.371781514611056351782281
2.938226718055535258145028 -0.01666666666666666296592325 1.377060795847179885953437
2.944113359027767273801146 -0.0174384596945094116904329 1.371781514611056351782281
2.929480990235139081789839 -0.0008247889741260424354210579 1.380305779209265226725734
2.926621903386974921090768 0.004893384722202088685238941 1.378271481335227033326873
2.928116541275906037355981 -0.03822671805553541635180892 1.3669506190675511092536
2.918700964540704489991185 -0.02238484036299479701392912 1.3696127184839377299852
2.911449874609240318079628 -0.03822671805553542329070282 1.361536839578347368728828
2.919370813455510305090002 0.02238484036299479701392912 1.370195602429636227981291
2.908590787761076157380558 0.03415812230745938343767776 1.359502541704308953285363
2.928116541275906037355981 0.03822671805553541635180892 1.3669506190675511092536
2.907920938846270786370951 0.0009987189123401504775578985 1.358919657758610455289272
2.915841877692540329292115 -0.0164927367284525630553027 1.367578420609899758630945
2.907920938846270786370951 -0.0339841923692452696492694 1.358919657758610677333877
2.979255729719501477603671 -0.01524883848770395428084967 1.394504568207206141039478
2.972871012548941926922907 0.007093631260040979616410262 1.389009136414411926807588
2.979255729719501477603671 0.02943610100778593086090495 1.394504568207206141039478
2.967375580756147712691018 -0.03900913641441161594514142 1.383338645998850369167599
2.967375580756147712691018 0.03900913641441160206735361 1.383338645998850369167599
2.955495431792793503689154 0.01667729199770009648751135 1.372172723790494597295719
2.960990863585588162010254 -0.005665177750044846083365968 1.377843214206056154935709
2.955495431792793503689154 -0.02800764749778977824590243 1.372172723790494375251114
2.04787087877141615877008 0.03323201695657716087106692 1.435361138185160756464143
2.045741757542832495175844 -0.01666666666666667684371106 1.439486887249704860636257
2.04787087877141615877008 -0.0001013163767561719996734837 1.435361138185160756464143
2.041485293155931302067074 0.008153737892864078989907384 1.445741757542832406358002
2.03935794999761377255254 -0.02092135298330189546733848 1.447870878771416514041448
2.03935794999761377255254 0.03722882876903006732494106 1.447870878771416069952238
2.043625949695151433616047 -0.04574175754283266170929778 1.43737107940202379907646
2.039369485308250240507277 -0.04574175754283266170929778 1.443625949695151344798205
2.039369485308250240507277 0.04574175754283264783150997 1.4436259496951511227536
2.043625949695151433616047 0.04574175754283264783150997 1.437371079402023577031855
2.05490875780110648918253 -0.04251617700760727119879689 1.404082378866539970729832
2.054082378866539659867385 -0.04251617700760726425990299 1.414494175240079032462859
2.054082378866539659867385 0.0425161770076072781376908 1.414494175240079032462859
2.05490875780110648918253 0.0425161770076072781376908 1.404082378866539970729832
2.055394669365329551879995 -0.04086341913847411910776231 1.403741911496196426156757
2.05831020192695923753945 -0.01501390879753350567071823 1.407483822992392941131357
2.055394669365329551879995 0.01083560154340709215381455 1.403741911496196426156757
2.057483822992392852313515 0.004156926080411196822161912 1.417895619365931780819778
2.053741911496196337338915 0.03000643642135179811614165 1.424565504243274327578206
2.053741911496196337338915 -0.02169258426052941141071173 1.424565504243274327578206
2.991859890195840421256435 0.004249650349676330207682184 1.412389760153835327471938
2.983719780391681286602079 -0.01666666666666668378260496 1.41898471537067916159458
2.991859890195840421256435 -0.02908368298365700960195213 1.412389760153835327471938