# geometry NO_DATA 652
#  x  y  z
2.446399157611601093975651 0.02719083098259264530405233 1.230791673370991379243833
2.442798315223202010315617 -0.0166666666666666664353702 1.234994573102897508221076
2.446399157611601093975651 -0.006142502350740691036135033 1.230791673370991379243833
2.43016593534945091192867 -0.008598093080835762791469534 1.242798315223202720858353
2.421134397864098453112547 -0.03472974163737158059817034 1.246399157611601360429177
2.421134397864098453112547 0.01753355547570005154578432 1.246399157611601360429177
2.440952072936986461115794 -0.04279831522320247383373015 1.233148330816681736976648
2.428319693063235362728847 -0.04279831522320248771151796 1.24095207293698672756932
2.428319693063234918639637 0.04279831522320248771151796 1.24095207293698672756932
2.440952072936986461115794 0.04279831522320248771151796 1.233148330816681959021253
2.496824552434980581949731 -0.01242451246789395835623537 1.205296524664405399818179
2.498412276217490290974865 0.01773337330042038667565762 1.205829877981282161059085
2.498412276217490290974865 -0.04258239823620830338812837 1.205829877981282161059085
2.475744594186723990247856 -0.03840602212935643328117763 1.212253375085076356754143
2.488201995700578095238598 -0.04682455243498101493671015 1.210165187031650546600758
2.460665651302566647729009 -0.04158146969437542112002504 1.219528575848928486635714
2.460665651302566647729009 0.04158146969437542805891894 1.219528575848928486635714
2.475744594186723546158646 0.03840602212935643328117763 1.212253375085076356754143
2.488201995700578095238598 0.04682455243498101493671015 1.210165187031650546600758
2.484367150921126032869779 -0.00824813636104208477983768 1.207384712717831209971564
2.473497473189781192814962 0.01349121910164767686179932 1.21000625408813400341046
2.458418530305624294385325 0.001059182426056829665755865 1.217281454851986355336635
2.454209265152812236010504 0.02597398545376558565145331 1.22193511424553569177931
2.454209265152812236010504 -0.02385562060165192024840941 1.221935114245535913823915
2.547426565804919107449678 -0.01207075776208978851178344 1.204871388647368757318645
2.548713282902459464906997 0.01868914137616331863633867 1.205882626002116930763464
2.548713282902459464906997 -0.0428306569003428921904586 1.205882626002116930763464
2.518823637463220244114837 -0.04495314016650944766162468 1.204730404991633641031967
2.534253591310681397175131 -0.04742656580491977358349232 1.205791646624716939584232
2.503443687894093550028174 -0.04752657436158966991479602 1.205564764993479975885293
2.503443687894093550028174 0.04752657436158966991479602 1.205564764993479975885293
2.518823637463219800025627 0.04495314016650943378383687 1.204730404991633641031967
2.534253591310680953085921 0.04742656580491977358349232 1.205791646624716939584232
2.531996611957457954389383 -0.01419324102825633183988518 1.203810147014285458766381
2.517853375207536714697198 0.01409323247158644244747538 1.203760142735950555703539
2.502473425638410464699746 -0.01242451246789395835623537 1.20459450273779666851226
2.501236712819205010305268 0.01843539522702904512319044 1.205478867017977906428428
2.501236712819205010305268 -0.04328442016281695836621424 1.205478867017977906428428
2.59067250751860189694753 0.00222704350655428002375702 1.218774347568008398212669
2.595336253759301214927291 0.02623288435848968036534501 1.223557456413919997118001
2.595336253759301214927291 -0.02177879734538111858310749 1.223557456413919997118001
2.568063025284940792403177 -0.03669169252017902282947404 1.21072385109967251004548
2.582739284452395978064487 -0.04067250751860206070542603 1.218180298687071339003296
2.556060104858973058838956 -0.04601918500157696489960557 1.208358059311261722967856
2.556060104858972614749746 0.04601918500157696489960557 1.208358059311261722967856
2.568063025284940792403177 0.03669169252017902282947404 1.21072385109967251004548
2.582739284452395978064487 0.04067250751860206764431993 1.218180298687071339003296
2.575996248351146267197009 -0.01268585166824363202886516 1.211317899980609569254852
2.56598373542438995542625 0.00733917418526872783468562 1.208644561239121895113158
2.553980814998422665951239 -0.01207075776208978851178344 1.206278769450711330080139
2.551990407499210800068568 0.01728176057282050648300498 1.206586316403788217144211
2.551990407499211244157777 -0.04142327609700008350657185 1.206586316403788217144211
2.62237030840777851636858 -0.02430345352629453142823124 1.246673761934072865997791
2.616174511302779670529617 0.002377403675184679154863687 1.243347523868145731995583
2.62237030840777851636858 0.02905826087666390014629947 1.246673761934072865997791
2.612848273236852758572013 -0.04334752386814588742680598 1.239453950354016731338902
2.612848273236852758572013 0.04334752386814588742680598 1.239453950354016731338902
2.603326238065927000775446 0.02890790070803349667838411 1.232234138773960596680013
2.606652476131854356822259 0.002227043506554273084863116 1.236127712288089597336693
2.603326238065927000775446 -0.0244538136949249418350405 1.232234138773960596680013
2.347701730367232286766921 0.03511929398268733709675971 1.287417563615455007308697
2.345403460734464484716 -0.01666666666666665602702935 1.290261377358575822782427
2.347701730367232286766921 0.00178596064935399945552974 1.287417563615455007308697
2.336113997261404229277559 -0.001912260279453214086367585 1.295403460734464440307079
2.32912280342111221997925 -0.03064905434725108748783562 1.297701730367232242358
2.32912280342111266406846 0.02682453378834465454461089 1.297701730367232020313395
2.34380141916562134696278 -0.04540346073446453051269955 1.288659335789732462984603
2.33451195569256109152434 -0.04540346073446453051269955 1.293801419165621080509254
2.33451195569256109152434 0.04540346073446455132938127 1.293801419165621080509254
2.34380141916562090287357 0.04540346073446455132938127 1.288659335789732462984603
2.392694544571082548856111 -0.01145700876802392687014986 1.259910284378238598534949
2.396347272285541230019135 0.01457086913639219806493319 1.258862385613101153580828
2.396347272285541230019135 -0.03748488667244006394829725 1.258862385613101153580828
2.377262823797736679409809 -0.02962688106497882861711801 1.267901612559987789552451
2.387395658711351842384829 -0.04269454457108279310517673 1.263972609756257137192392
2.36424888484552875311806 -0.03693233649389603828749884 1.275773468136307098319548
2.36424888484552875311806 0.03693233649389605216528665 1.275773468136307098319548
2.377262823797736679409809 0.02962688106497884943379972 1.267901612559987789552451
2.387395658711351842384829 0.04269454457108280004407064 1.263972609756257137192392
2.382561709657467829970301 -0.003599003160562695008417577 1.263839287181969250895008
2.376081602458311792247514 0.009361211237749475846947611 1.266720391220562458300947
2.363067663506103421866555 0.006382499914889464345812975 1.274592246796881989112649
2.356533831753051533297594 0.02664816974211884140211204 1.279582998334607868429202
2.356533831753051977386804 -0.01388316991233991617993304 1.279582998334608090473807
2.40732717300241327862409 -0.04762311623040269698003968 1.253292886209497858374107
2.403292886209497769556265 -0.04762311623040269698003968 1.255897715158819316627614
2.403292886209497325467055 0.04762311623040269698003968 1.255897715158819094583009
2.40732717300241283453488 0.04762311623040270391893358 1.253292886209497858374107
2.409257015470629426090454 -0.03955454264457179680558596 1.251188441884798496772646
2.406411170562512413795275 -0.008598093080835761056746058 1.252376883769597215589897
2.409257015470628982001244 0.02235835648290027469209384 1.251188441884798496772646
2.40237688376959690472745 -0.01145700876802393554376724 1.254981712718918673843405
2.401188441884798407954804 0.01949944079571209673562571 1.256398099783441191235056
2.401188441884798407954804 -0.0424134583317599747620541 1.256398099783441191235056
2.645257648158390928472272 -0.005565588799272048504962473 1.260292890775306817729984
2.64762882407919564187182 0.02302539269245184108680924 1.263472253788199273216719
2.64762882407919608596103 -0.03415657029099593983145766 1.263472253788199495261324
2.640484192583454792213615 -0.04525764815839056209867408 1.257921714854502326375041
2.640484192583454792213615 0.04525764815839056209867408 1.257921714854501882285831
2.638113016662650078814067 -0.0166666666666666664353702 1.254742351841609426799096
2.633339561087713498466201 -0.002364948166424761522019793 1.252371175920804713399548
2.633339561087713498466201 0.03096838516690857481816757 1.252371175920804713399548
2.685509730803763872586387 -0.008991132595959482054492895 1.294500863399722812019377
2.676003570302297962513194 0.01334392753681970175683169 1.289001726799445801674437
2.685509730803764316675597 0.03567898766959887862926237 1.294500863399722812019377
2.670504433702021174212859 -0.03900172679944585024669479 1.283384735666753595495493
2.670504433702021174212859 0.03900172679944585718558869 1.283384735666753373450888
2.655499136600277587660912 0.0167694713335071327042769 1.272268607933784156927004
2.660998273200554820050456 -0.005565588799272038963983356 1.277885599066476363105949
2.655499136600277587660912 -0.02790064893205122797947837 1.272268607933784156927004
2.24816222714074509525517 0.03790383397377887486623393 1.339741606833033227275109
2.24632445428149063459955 -0.01666666666666667337426411 1.34211414412763474501844
2.24816222714074509525517 0.004570500640445555873281336 1.339741606833033227275109
2.239853136035369729484046 0.003724030174424882658895664 1.346324454281490279328182
2.235219590648503285024162 -0.02593375744039917024652553 1.348162227140745184073012
2.235219590648503285024162 0.03338181778924894510529597 1.348162227140745184073012
2.244923898537609652237279 -0.046324454281490720641834 1.340713588383753540611565
2.238452580291488747121775 -0.046324454281490720641834 1.344923898537609519010516
2.238452580291488747121775 0.0463244542814907137029401 1.344923898537609519010516
2.244923898537609652237279 0.0463244542814907137029401 1.34071358838375376265617
2.287919483139580822950165 -0.008496237466325787246468337 1.316165731460589682910722
2.293959741569790544701846 0.01275657900658828426687652 1.314210687630550600246693
2.293959741569790544701846 -0.02974905393923987784177143 1.314210687630550600246693
2.276234062700645210952644 -0.02312950609324802841992863 1.321647912894398091410153
2.285505740844145705636947 -0.03791948313958073968343854 1.318338138971401951593521
2.265607654464187881160342 -0.03521002295366729151204765 1.328064010976999220758898
2.265607654464187881160342 0.03521002295366730538983546 1.328064010976999220758898
2.276234062700645210952644 0.02312950609324807005329205 1.321647912894398091410153
2.285505740844145705636947 0.03791948313958076050012025 1.318338138971402173638126
2.278647804996080328265862 -0.001876689620333939559349012 1.319475505383585822727355
2.275416385282789555333238 0.004586149806247444976614602 1.320830235476542435790748
2.264789977046332225540937 0.008246046358954851884792703 1.327246333559143565139493
2.257394988523166112770468 0.0267894026459554734920232 1.332307701548787859380241
2.257394988523166112770468 -0.01029730992804579227384298 1.332307701548787637335636
2.312590267602342208874688 -0.04611923262267225709365448 1.305213064408734968679937
2.305213064408735412769147 -0.04611923262267225709365448 1.309298279008905385722983
2.305213064408734968679937 0.04611923262267226403254838 1.309298279008905385722983
2.312590267602341764785479 0.04611923262267226403254838 1.305213064408734968679937
2.31669479007587719721073 -0.03136482623545880366044969 1.301940383688663827044252
2.311257970570934183740519 -0.001912260279453214086367585 1.303880767377327609679583
2.31669479007587719721073 0.02754030567655237418667191 1.301940383688663827044252
2.303880767377327831724187 -0.008496237466325795920085717 1.307965981977498248767233
2.301940383688664049088857 0.02095632848967979300347508 1.310110812889004661130343
2.301940383688664049088857 -0.03794880342233138831309347 1.310110812889004883174948
2.698837881644586378371287 -0.01403982960786521322349429 1.302475536884814655280707
2.69941894082229350004809 0.0181313853700541469105012 1.303207896236508123166686
2.69941894082229350004809 -0.04621104458578457335748979 1.303207896236508345211291
2.697757571257370035056056 -0.04883788164458603003881265 1.301894477707107755648508
2.697757571257370035056056 0.04883788164458603003881265 1.301894477707107755648508
2.697176512079662913379252 -0.01666666666666666990481716 1.301162118355414065717923
2.696096201692446570064021 0.0121818091814057134075755 1.30058105917770694404112
2.696096201692446570064021 0.04551514251473905148248633 1.30058105917770694404112
2.736207012670420102296021 0.008293907682237420739279621 1.326273274504031984832864
2.743103506335209829103405 0.02783425368599093396859701 1.331857068013694078700837
2.743103506335209829103405 -0.01124643832151609075531429 1.331857068013694078700837
2.716159479660780196041969 -0.03090971722597505091933989 1.313285800323693353064414
2.730177498605224517547185 -0.03620701267042017446051716 1.323117439775922887790216
2.706389306658903315394582 -0.04470270455555487576493334 1.307702725188304215819812
2.706389306658904203573002 0.04470270455555486188714553 1.307702725188304215819812
2.716159479660780196041969 0.03090971722597504051099904 1.313285800323693575109019
2.730177498605224517547185 0.03620701267042017446051716 1.323117439775922887790216
2.722188993725976224880014 -0.01136937122222153595529903 1.316441635051802450107061
2.715067468446322074271393 0.002873679337086840288734146 1.312193789109235009249232
2.705297295444445637713216 -0.01403982960786521669294125 1.306610713973845872004631
2.70264864772222290767445 0.01399620828102298569772799 1.305275484781023953573253
2.70264864772222290767445 -0.04207586749675341908361048 1.305275484781023731528649
2.763183345085594044832078 -0.03497616409356756050907933 1.348159509179162052205925
2.759352408774054410400822 -0.005323812401910732808318905 1.346319018358323571504798
2.763183345085594044832078 0.02432853928974608795354762 1.348159509179162052205925
2.75751191795321659583351 -0.04631901835832348546251325 1.343973129686947487471116
2.75751191795321659583351 0.04631901835832349934030105 1.343973129686947487471116
2.751840490820838258656522 0.037946259373894251909487 1.339786750194732478647097
2.753680981641676517313044 0.008293907682237434617067429 1.342132638866109006769989
2.751840490820838258656522 -0.021358444009419393083693 1.339786750194732700691702
2.194701672917919843541767 0.01920280650046505069306058 1.374501133582544998290587
2.189403345835839509447851 -0.01666666666666668378260496 1.379303076168152175640103
2.194701672917919399452558 -0.01413052683286828738185026 1.374501133582544998290587
2.175981148029249467867885 -0.01017772894651369774976502 1.389403345835839687083535
2.167857277304739316292626 -0.03291440811568666080511036 1.394701672917919577088242
2.167857277304739316292626 0.01255895022265929306115595 1.394701672917919355043637
2.187979094578646588331594 -0.03940334583583965377684422 1.377878824910959032479241
2.174556896772056102662418 -0.03940334583583965377684422 1.387979094578646099833463
2.174556896772056546751628 0.03940334583583963989905641 1.387979094578646099833463
2.187979094578646588331594 0.03940334583583963989905641 1.377878824910959254523846
2.217829546096877102456801 -0.04420980142481080454874842 1.357634197676331755388901
2.207634197676331400117533 -0.04420980142481081842653623 1.36420059467531129548945
2.207634197676331844206743 0.04420980142481082536543013 1.36420059467531129548945
2.217829546096877990635221 0.04420980142481081842653623 1.357634197676331755388901
2.223285796128685820605142 -0.02381910458371924721454604 1.352895099287594549153368
2.215985546995734800646005 0.003724030174424903475577375 1.3557901985751892315335
2.223285796128685820605142 0.0312671649325690428899982 1.352895099287594549153368
2.205790198575188654217527 -0.003533872668707911061242166 1.362356595574168327544839
2.202895099287593971837396 0.02400926208943623268998735 1.366027893285553185265258
2.202895099287593971837396 -0.0310770074268520643534508 1.366027893285553185265258
2.792834697375044417100298 -0.0009046634003515840192002906 1.365046304258112686014215
2.796417348687522341776912 0.02526336730802648811167188 1.369344654578792841448376
2.796417348687522341776912 -0.02707269410872966200476419 1.369344654578792397359166
2.785422109153233627409918 -0.04283469737504473628941781 1.361463652945635205426811
2.785422109153233627409918 0.04283469737504475016720562 1.361463652945635205426811
2.781839457840755702733304 -0.01666666666666666296592325 1.35716530262495504999265
2.774426869618944468953714 -0.01248911502686599929445865 1.353582651312478013494456
2.774426869618944913042924 0.02084421830646733878045218 1.353582651312478013494456
2.82928254915962273940977 -0.01654496461148819222430895 1.395827513771110695017796
2.82090000392314488308898 0.008443396264067169754152786 1.391655027542221922942645
2.82928254915962273940977 0.03343175713962254214095537 1.395827513771110917062401
2.816727517694256111013829 -0.04165502754222203535272584 1.387041848737601501539984
2.816727517694256111013829 0.04165502754222202841383194 1.387041848737601945629194
2.804172486228889482617888 0.02408369747520376982774515 1.378256183704092752151382
2.808344972457778254693039 -0.0009046634003515990896104881 1.382869362508712729464833
2.804172486228889482617888 -0.02589302427590695759862527 1.378256183704092530106777
2.14318793526070106025827 0.01019991544284324681834963 1.417011980182142139028656
2.136375870521402209334383 -0.01666666666666662133255983 1.423287892982122659901734
2.14318793526070106025827 -0.02313341789049008778711425 1.417011980182142139028656
2.127551830692312240245201 -0.0009814129915127704079091941 1.436375870521402031698699
2.125539855602521122079906 -0.02069061684624826091827288 1.443187935260701104667191
2.125539855602521122079906 0.01872779086322267846909106 1.443187935260700882622587
2.136656844177054370703672 -0.03637587052140210663875308 1.423568866637774821271023
2.12783280434796440161449 -0.03637587052140210663875308 1.436656844177054637157198
2.1278328043479648457037 0.03637587052140216214990431 1.436656844177054193067988
2.136656844177054370703672 0.03637587052140216214990431 1.423568866637774821271023
2.156420898419346698915433 -0.04776273560246863808531614 1.403176429559270133040627
2.153176429559270133040627 -0.04776273560246863114642224 1.406755118686657590743039
2.153176429559270133040627 0.04776273560246864502421005 1.406755118686657368698434
2.156420898419346698915433 0.04776273560246864502421005 1.403176429559269688951417
2.157607569918918333229385 -0.0412737978823156520524762 1.401118632198765645568983
2.155481733257607501741404 -0.01017772894651367866780678 1.402237264397531157911203
2.157607569918918333229385 0.02091833998928829818630959 1.401118632198765201479773
2.152237264397531379955808 -0.009509288411892241957290572 1.405815953524918615613615
2.151118632198765645568983 0.02158678052390972795793189 1.408276010453540116884597
2.151118632198765645568983 -0.04060535734769421534195999 1.408276010453540338929201
2.847283172329932554589504 -0.01058902593257834978679455 1.405755648037111171788638
2.848641586164966099659068 0.02002747973068769171689496 1.407436054569121797186426
2.848641586164966099659068 -0.04120553159584438435159015 1.407436054569121797186426
2.844529950963666564689447 -0.04728317232993271140850666 1.404397234202077626719074
2.844529950963666564689447 0.04728317232993270446961276 1.404397234202077626719074
2.843171537128633019619883 -0.01666666666666667337426411 1.402716827670066779276681
2.840418315762367029719826 0.005726568593999875785016673 1.401358413835033234207117
2.840418315762367029719826 0.03905990192733321125784229 1.401358413835033234207117
2.88391054552661429966065 0.01066836106277478830872685 1.429756968338105949101191
2.891955272763306883376799 0.02791223992272242118706238 1.435379754966133791782568
2.891955272763306883376799 -0.006575517797172873192546039 1.435379754966133791782568
2.874165668297921527596372 -0.01956716359226485721367617 1.423588456104640131982819
2.883660643997413508543559 -0.03391054552661430798732312 1.430084279002186153917364
2.865543728867947059768539 -0.03565661806565056241025147 1.418582549234991718734022
2.865543728867947059768539 0.03565661806565056934914537 1.418582549234991718734022
2.874165668297920639417953 0.01956716359226489537759264 1.423588456104640131982819
2.883660643997413064454349 0.03391054552661432186511092 1.430084279002186153917364
2.874415569827122318713464 -0.002323284732317200916573707 1.423261145440559705122041
2.872965321364322921482426 0.0005772121932810056910839736 1.422388109171041747913478
2.864343381934348897743803 -0.01058902593257832550066588 1.417382202301393334664681
2.857171690967174271236217 0.008400925466405567004768429 1.413249331701262656579843
2.857171690967174271236217 -0.02957897733156223535333496 1.413249331701262878624448
2.909435923565447446037524 -0.03924842954560704699762397 1.44868435311105447915736
2.906691432116141449171209 -0.008546389990164516073378742 1.447368706222109224768246
2.909435923565447001948314 0.02215564956527800791197258 1.44868435311105447915736
2.9053757852271964168267 -0.04736870622210918868599805 1.445685200309108520144719
2.9053757852271964168267 0.04736870622210918868599805 1.445685200309108298100114
2.901315646888944943526667 0.04137040061821729841629036 1.442686047507162783176682
2.902631293777890419960386 0.01066836106277477269621556 1.444369553420163043711
2.901315646888944943526667 -0.02003367849266775996275314 1.442686047507162339087472
2.124825108300461007360127 -0.01962996643924293932448322 1.494455074739703848152317
2.120729942040674220748997 0.002613516373498468887970336 1.488910149479408140393843
2.124825108300460563270917 0.02485699918623987883514737 1.494455074739703848152317
2.122121543527484277547046 -0.03948336673790710238396429 1.464278916689907505954693
2.119823841950203124895324 -0.0283935162173151768583157 1.475400658096278405650992
2.124205616839239585402765 -0.03891014947940807378046202 1.486809008131898313109787
2.119823841950203568984534 0.0283935162173151768583157 1.475400658096278405650992
2.124205616839239585402765 0.03891014947940807378046202 1.486809008131898313109787
2.122121543527484277547046 0.03948336673790710238396429 1.464278916689907505954693
2.120943570306200065544999 -0.02379811306275324625514322 1.455258316631046433542451
2.118359260099669683086177 -0.0009814129915128148601982661 1.460516633262092911493824
2.120943570306200065544999 0.02183528707972762217259799 1.455258316631045989453241
2.116061558522388530434455 0.00557681614607474177708335 1.471638374668463811190122
2.116348167151638204330766 -0.006150033404573766911138666 1.477501799443787788845839
2.941681735148219622999477 0.000926447005404607698553221 1.467114821687815595652182
2.945840867574109456228371 0.02594151548695763920271418 1.471752246097961291937395
2.945840867574109456228371 -0.02408862147614840992781993 1.471752246097961291937395
2.933234339245694322073632 -0.04168173514821969793953116 1.462955689261925762423289
2.933234339245693877984422 0.04168173514821968406174335 1.462955689261925318334079
2.929075206819804044755529 -0.01666666666666667684371106 1.458318264851780066138076
2.920627810917278299740474 -0.01686465484194483305246948 1.454159132425890010864578
2.920627810917278299740474 0.01646867849138849981827093 1.454159132425890010864578
2.976235512968927743315817 -0.02010231686346823989919308 1.496337829832397048335224
2.968611011735868832062124 0.005906676134658681368017064 1.492675659664793652581238
2.976235512968927743315817 0.0319156691327855956963333 1.496337829832396604246014
2.964948841568265880397348 -0.04267565966479358596785687 1.488467720001765970394558
2.964948841568265436308138 0.04267565966479358596785687 1.488467720001765748349953
2.95366217016760268521125 0.0269354400035315411088277 1.480597610171134670409288
2.957324340335206080965236 0.0009264470054046250457879808 1.484805549834162796685177
2.95366217016760268521125 -0.02508254599272229795614564 1.480597610171134892453892
2.142057259598314722381929 0.00178614006311876571952979 1.517169143766577521503791
2.146028629799157094737438 0.02717673299476702775123726 1.522424176930627925941053
2.146028629799157094737438 -0.02360445286852948243438988 1.522424176930627925941053
2.139002054652573647786085 -0.04205725959831491805873682 1.513197773565735149148281
2.139002054652573203696875 0.04205725959831491805873682 1.513197773565735149148281
2.135030684451730831341365 -0.01666666666666667337426411 1.507942740401684966755624
2.131975479505989312656311 -0.005329224028186610624679975 1.50397137020084237235551
2.131975479505989312656311 0.02800410930514671964397522 1.50397137020084237235551
2.166603536065809798571991 -0.03085061566786619427493754 1.547454151733676619429048
2.162120540432390214391489 -0.002608978867179819784161143 1.544908303467352972404569
2.166603536065809798571991 0.02563265793350655991078568 1.547454151733676397384443
2.159574692166066345322406 -0.04490830346735304179350834 1.540013888431902566722442
2.159574692166066789411616 0.04490830346735304179350834 1.540013888431902566722442
2.152545848266323336162031 0.03002777686380515148600878 1.532573625130128514015837
2.155091696532646761141905 0.001786140063118772658423694 1.537468040165579141742569
2.152545848266323336162031 -0.02645549673756760269971444 1.532573625130128736060442
2.996534885799136294082246 -0.008882909471539052193023167 1.507356992798426720270299
2.998267442899567924996518 0.02098530966093094946023356 1.509516314295559213931597
2.998267442899567924996518 -0.03875112860400904690738599 1.509516314295559213931597
2.992887447633564068638634 -0.04653488579913667155807389 1.505624435697995311400632
2.992887447633564068638634 0.04653488579913665768028608 1.505624435697995311400632
2.991154890533132437724362 -0.01666666666666666990481716 1.50346511420086348387315
2.98750745236756021228075 0.002441561933795338874830794 1.501732557100431630914272
2.98750745236756021228075 0.03577489526712866740876251 1.501732557100431408869667
3.039076815705382461629824 -0.003323212984684163935622525 1.542400028690067426140331
3.03093836481758938106168 0.01481017772878405469594298 1.534800057380135029916346
3.039076815705382461629824 0.03294356844225224817401809 1.542400028690067426140331
3.023338393507657428926905 -0.03480005738013486338289226 1.529625240620964499171919
3.023338393507657428926905 0.03480005738013488419957397 1.529625240620964499171919
3.007599971309931952134775 0.00925048124192917597952146 1.516850452551861794248111
3.01519994261986434835876 -0.008882909471539024437447551 1.522025269311031880903329
3.007599971309931952134775 -0.02701630018500724220165132 1.516850452551861794248111
2.19280017515000746897158 -0.0003660096488000951224679735 1.565350153358925355817632
2.196400087575003823303632 0.02576749883454110962022199 1.569900569442862492408608
2.196400087575003823303632 -0.02649951813214131146612118 1.569900569442862492408608
2.186762264808080225009235 -0.04280017515000787003964788 1.561750240933929223530185
2.186762264808080225009235 0.0428001751500078908563296 1.561750240933929223530185
2.183162352383084314766393 -0.01666666666666665602702935 1.55719982484999208693921
2.177124442041157070804047 -0.009808803717171937774921275 1.553599912424996176696368
2.177124442041157070804047 0.02352452961616139509581913 1.553599912424996176696368
2.225168736894342469412322 -0.02107188122273153524366407 1.596240618117074294701752
2.218223441271559792653534 0.004742688344750424500606556 1.592481236234148500585661
2.225168736894342913501532 0.03055725791223235648930157 1.596240618117074294701752
2.214464059388633998537443 -0.04248123623414860189351216 1.587724279959340734080797
2.214464059388633998537443 0.04248123623414862964908778 1.587724279959340734080797
2.203759381882925083573355 0.02544855991868185535187408 1.579207941801607617549053
2.207518763765850877689445 -0.0003660096488000754441985429 1.583964898076414939964707
2.203759381882925083573355 -0.02618057921628203638109156 1.579207941801607617549053
3.04932174229081365268712 -0.01347306941004233760139641 1.552275056337497627367839
3.049660871145406737525718 0.01918200621410565825941674 1.553532726111217288078592
3.049660871145406737525718 -0.04612814503419034040110347 1.553532726111217066033987
3.048732626676465162773866 -0.04932174229081466576563031 1.55193592748290498661845
3.048732626676465162773866 0.04932174229081466576563031 1.551935927482905208663055
3.048393497821872522024478 -0.0166666666666666525575824 1.550678257709185547952302
3.047804382207524032111223 0.0141319200195987124818453 1.550339128854593129247519
3.047804382207524032111223 0.04746525335293203667896833 1.550339128854593129247519
3.068565416343260299214535 -0.02565409007392628962240799 1.594219506417186682512011
3.067953448545850392292778 -0.003881743906219225093839897 1.588439012834373942339994
3.068565416343260299214535 0.0178906022614878715271125 1.594219506417186682512011
3.062172954963036097808526 -0.03843901283437375915319478 1.579149638378832154472775
3.062172954963036985986946 0.03843901283437373139761917 1.579149638378832598561985
3.055780493582812784580938 0.008299276757664716952511696 1.564079770340478070522749
3.061560987165626190886769 -0.01347306941004237576531288 1.573369144796019414300758
3.055780493582812784580938 -0.03524541557774943378866794 1.56407977034047762643354
2.245894696733066187022132 -0.007018078401550623124371953 1.60892959739949148456617
2.247947348366532871466461 0.02220995166484909799642367 1.61170123989858282698151
2.247947348366532871466461 -0.03624610846795034424516757 1.61170123989858282698151
2.241985359205575178975778 -0.04589469673306637714782497 1.606876945766024578077236
2.241985359205575178975778 0.04589469673306639796450668 1.606876945766024800121841