# geometry NO_DATA 660
#  x  y  z
3.283922515115444973332615 0.01548830310244375847716913 1.832154969769110408606139
3.291961257557723286026885 0.03274415155122187282010771 1.840193712211388055166594
3.291961257557723286026885 -0.001767545346334377116132019 1.840193712211388055166594
3.268769247275423062149002 -0.02747690326949208186602114 1.846246150544915254343437
3.265015397820338449719202 -0.001651268846328165758666207 1.842492301089830641913636
3.268769247275423062149002 0.02417436557683579415045649 1.846246150544915254343437
3.283040063311862155615017 -0.01764775572379639889675218 1.832450881529750219556263
3.291569350282704142784951 -0.0339225151154447790435853 1.840390986718480892392336
3.278165988542557585105897 -0.02621754169818224858290456 1.837324956299054345976174
3.277536307756902633769869 -0.04249230108983063219918463 1.845854243269896999279922
3.278165988542557585105897 0.0262175416981822242967759 1.837324956299054345976174
3.277536307756902633769869 0.04249230108983058362692731 1.845854243269896999279922
3.283040063311862155615017 0.0176477557237964405301156 1.832450881529750219556263
3.291569350282704142784951 0.03392251511544480679916092 1.840390986718481336481545
3.275393228144602097984261 -0.0003919072750182608097860304 1.824214864580379291680856
3.274902683616037535330179 0.0005891817821114884567296199 1.824313501833925821316029
3.270028608846732964821058 0.009158967756497271572868613 1.829187576603230169780545
3.26564507860599384514444 -0.0003919072750183301987250695 1.833963014118987988609888
3.334091418281938778989115 0.01515049676945598618182931 1.831817163436122886110979
3.342045709140969211858874 0.03257524838472798667243779 1.839771454295153541025343
3.342045709140969211858874 -0.002274254845816055074780859 1.839771454295153318980738
3.332828603134468714586092 -0.01801393339738345533707076 1.832070518185863416960046
3.341456527358857897525013 -0.03409141828193866519125521 1.839940357461647302272922
3.324116227326832984090288 -0.0339225151154447790435853 1.840193712211387833121989
3.324116227326832984090288 0.03392251511544482067694872 1.840193712211388277211199
3.332828603134468714586092 0.0180139333973835247260098 1.832070518185863861049256
3.341456527358857897525013 0.03409141828193870682461863 1.839940357461647302272922
3.325463494057550040139404 -0.0005891817821114138636201529 1.823947324160339222842708
3.324789860692191290070241 0.0007580849486054110335925271 1.824031775743585992444196
3.316077484884555559574437 0.01548830310244377062023347 1.832154969769110630650744
3.308038742442278135058586 0.03274415155122188669789551 1.840193712211388277211199
3.308038742442278135058586 -0.001767545346334384488706792 1.840193712211388055166594
3.384107795909363503028544 0.01511774151460736417829089 1.831784408181273970939174
3.392053897954681929149956 0.03255887075730368174220075 1.839730510226592841149795
3.392053897954681929149956 -0.00232338772808900282523803 1.839730510226592397060585
3.382583437198440012849687 -0.01819921419130165335387161 1.831808974622410435273423
3.391295813006076631523911 -0.03410779590936298399928006 1.839746887854016410557279
3.373862872577092275605537 -0.03409141828193866519125521 1.839771454295153318980738
3.373862872577092275605537 0.03409141828193870682461863 1.839771454295153541025343
3.382583437198440456938897 0.01819921419130174355949237 1.831808974622410435273423
3.391295813006076631523911 0.03410779590936302563264348 1.839746887854017076691093
3.37539542010172732844353 -0.0007580849486052848324596498 1.823846494949667773610713
3.374629146339409579979929 0.0007744625760297479477936577 1.823854683763380002403665
3.365908581718061398646569 0.01515049676945600005961712 1.831817163436122886110979
3.3579542908590305216876 0.0325752483847280005502256 1.839771454295153318980738
3.3579542908590305216876 -0.002274254845816048135886955 1.839771454295153318980738
3.434001298280176861510427 0.01533073677297823456111558 1.831997403439644900302596
3.442000649140088519573055 0.03266536838648909785165486 1.83999675429955589223141
3.442000649140088519573055 -0.002003894840532661255488867 1.83999675429955589223141
3.432505621942710583027747 -0.01810909418954052135797284 1.831837656995866314701971
3.441226186564058764361107 -0.03400129828017753319535643 1.839890256670370760616606
3.423838306135955633635604 -0.03410779590936299093817397 1.839730510226592175015981
3.423838306135955633635604 0.03410779590936301869374958 1.839730510226592397060585
3.432505621942710583027747 0.01810909418954058380801797 1.831837656995866314701971
3.441226186564058764361107 0.03400129828017756095093205 1.839890256670370760616606
3.425280733658829124266276 -0.0007744625760296283602940326 1.823944803765140898477171
3.424559519897392156906335 0.0006679649468442620157196399 1.823891554950547888580559
3.415892204090637207514192 0.01511774151460734856577961 1.831784408181273748894569
3.40794610204531878139278 0.03255887075730366786441294 1.839730510226592397060585
3.40794610204531878139278 -0.002323387728089011065174541 1.839730510226592397060585
3.483866790393208567877537 0.01559975254691689863784099 1.832266419213583796832268
3.491933395196604283938768 0.03279987627345844203308189 1.840333024016979734938104
3.491933395196604283938768 -0.001600371179624673597177709 1.840333024016979734938104
3.482598114443004710949481 -0.01786808867338574025040998 1.832064657383130068524224
3.491265430249760104430834 -0.03386679039320822370839892 1.840198516130010286673269
3.473998052579733375466731 -0.03400129828017752625646253 1.83999675429955633632062
3.473998052579733375466731 0.03400129828017754013425034 1.83999675429955633632062
3.482598114443004710949481 0.0178680886733857749448795 1.832064657383130068524224
3.491265430249760104430834 0.03386679039320823064729282 1.840198516130010730762478
3.475199474586453618485393 -0.0006679649468441730027212788 1.824132560466703356638618
3.474598763583093941065272 0.0005334570598749208700586899 1.8240653065232186325062
3.465998701719822605582522 0.01533073677297822241805125 1.831997403439644900302596
3.457999350859910947519893 0.03266536838648907703497315 1.83999675429955589223141
3.457999350859910947519893 -0.002003894840532653015552356 1.83999675429955589223141
3.533751414740037066763989 0.01583495918429856166853575 1.832499398185444272613154
3.541875707370018222519548 0.03291970725767025263142074 1.840625918480946143773735
3.541875707370018222519548 -0.001249788889073137100604871 1.840625918480946143773735
3.532745010792850415271005 -0.01761820513324657139220264 1.832326929386146829870086
3.541345072656121306664545 -0.03375141474003835045936128 1.840511137508233474591179
3.524202636756164963571791 -0.03386679039320822370839892 1.840335846362957328281595
3.524202636756164963571791 0.03386679039320822370839892 1.8403358463629575503262
3.532745010792850415271005 0.0176182051332465956783313 1.832326929386146829870086
3.541345072656121306664545 0.03375141474003835739825519 1.840511137508233474591179
3.525151352876766175370449 -0.0005334570598748754419876628 1.82431519006335762789206
3.524675583643475995643257 0.0004180814067050455610369264 1.824257502236772854331548
3.516133209606790988033254 0.01559975254691688996422361 1.832266419213583796832268
3.508066604803395271972022 0.03279987627345844203308189 1.840333024016979734938104
3.508066604803395271972022 -0.001600371179624677717145964 1.840333024016979734938104
3.577675953320023083392698 0.004710254997818142871923719 1.827034301677795014029471
3.579870667908375381216501 -0.0003208258211139722315685674 1.829549842087260902445678
3.576143543888575582201383 -0.007133422218484436645724589 1.838043588331151667603081
3.570221705280424373540882 -0.02851034388296924682038025 1.844021794165575878210461
3.570221705280424373540882 0.01424349944600035791641979 1.844021794165575656165856
3.577310956870374258897982 -0.005440247897115478743768069 1.826990131049260668305578
3.568817210626483493740579 -0.02178608874266816167186711 1.83506802355196652065672
3.565455083056333407398597 -0.03804358833115146359959979 1.84360594042439185358262
3.568817210626483493740579 0.02178608874266817208020797 1.835068023551966742701325
3.565455083056332519220177 0.0380435883311514705384937 1.84360594042439185358262
3.577310956870374258897982 0.005440247897115489152108925 1.826990131049260668305578
3.575116242282022405163389 -0.0004091670781833640739566516 1.824474590639794557844766
3.574751245832374024757883 0.0003208258211139823688588801 1.824430420011259545987059
3.56625749958848325960048 0.0158349591842985512601949 1.83250831251396584242741
3.558128749794241318937793 0.03291079292914857179486177 1.840630375645206928680864
3.558128749794241318937793 -0.001240874560551476213365873 1.840630375645206928680864
3.183911660991929792885458 0.01505525864862400538257692 1.881949301665715612585927
3.191955830495965429349781 0.03230025297388687544053454 1.889766094819325781273278
3.191955830495965429349781 -0.002189735676638885058381545 1.889766094819325559228673
3.190214088475271214662143 -0.001672951392078820794309668 1.89188703986734929607394
3.182276484436611596606781 0.01543446167595383285153776 1.883774079734698903010326
3.190214088475271214662143 0.03254187474398646112705435 1.89188703986734929607394
3.18328132872918745377433 -0.01742390746956013619639592 1.882703001070590520527048
3.191704118634669740117715 -0.03391166099192953475860435 1.890320086967051338433521
3.182771791699206431758284 -0.01728632621232990135284879 1.883212538100571764587698
3.190578479109332121765874 -0.03377407973469929991505722 1.891635328006053606841874
3.182771791699206431758284 0.01728632621232994992510612 1.883212538100571764587698
3.190578479109332121765874 0.03377407973469932073173894 1.891635328006053384797269
3.18328132872918745377433 0.01742390746956018476865324 1.882703001070590520527048
3.191704118634669740117715 0.03391166099192955557528606 1.890320086967051338433521
3.175488871086447506542072 -0.0001789131442972472733204947 1.87433221576925501672406
3.175110250685000856663009 0.0005783276585962452559508407 1.874531923026404367504938
3.174600713655019834646964 0.0004407464013660085150499157 1.875041460056385389520983
3.174469797026485906599191 -0.0001789131442972471106901688 1.87535128982921706075615
3.242492301089830775140399 -0.001651268846328358963493343 1.865015397820338316492439
3.24624615054491494348099 0.02417436557683570047538879 1.868769247275422928922239
3.24624615054491494348099 -0.02747690326949236289122425 1.868769247275422928922239
3.236592705316218676614426 -0.02670570902007250724263798 1.877433737559721649290623
3.245366075948006301388205 -0.04249230108983073628259319 1.87704814043501189146923
3.223679888104637569767874 -0.03421340793024178761339016 1.889540850762282397923286
3.223679888104637569767874 0.03421340793024178761339016 1.889540850762282397923286
3.236592705316218676614426 0.02670570902007245173148675 1.877433737559721649290623
3.245366075948006745477414 0.04249230108983066689365415 1.87704814043501189146923
3.233718930458042706277411 -0.0008800745969085009296623001 1.865400994945048296358436
3.228699409281340138022642 0.009158967756497334022913748 1.869540441524842444565024
3.215786592069758142997671 0.01505525864862397936172478 1.881647554727402971153083
3.207893296034879160316677 0.03260199991219909360085083 1.889615221350169571579158
3.207893296034879160316677 -0.002491482614951132275316059 1.889615221350169349534553
3.268769247275423062149002 -0.04249230108983073628259319 1.861261548365253704062638
3.261261548365253393200192 -0.04249230108983073628259319 1.868769247275422928922239
3.261261548365253393200192 0.04249230108983066689365415 1.868769247275423150966844
3.268769247275423062149002 0.04249230108983066689365415 1.861261548365254370196453
3.268769247275423062149002 -0.02747690326949218247998274 1.853753849455084479203038
3.265015397820338449719202 -0.001651268846328186575347918 1.857507698910169091632838
3.268769247275423062149002 0.02417436557683587741718334 1.853753849455084701247642
3.257507698910169224859601 -0.001651268846328370456036372 1.865015397820338538537044
3.2537538494550846124298 0.02417436557683569353649489 1.868769247275422928922239
3.2537538494550846124298 -0.02747690326949236983011815 1.868769247275422928922239
3.588118626712701875192124 0.00709607990792775894517419 1.873762746574594517667833
3.594059313356350759960378 0.02854803995396381147142684 1.879703433218242958346877
3.594059313356350759960378 -0.01435588013810829184635498 1.879703433218242958346877
3.582159268913774674558681 -0.03811862671270271896162285 1.867822059930945854944184
3.582159268913774674558681 0.03811862671270271896162285 1.867822059930945854944184
3.576218582270126233879637 -0.01666666666666667337426411 1.86188137328729741426514
3.570259224471199477335404 -0.01901479550578173693953232 1.855940686643648973586096
3.570259224471199477335404 0.01431853782755159766593156 1.855940686643648529496886
3.634467763934476014497932 0.01439780546438075223281139 1.881064472131047660141689
3.642233881967238406929255 0.03219890273219035148333234 1.888830590163809386439198
3.642233881967238406929255 -0.003403291803428821430538287 1.888830590163809386439198
3.626722608564850958146053 -0.02258639064717898187195644 1.875588177963708247375507
3.637448588587869124921781 -0.03446776393447625874699725 1.885179727385583037246874
3.617822059930945854944184 -0.03811862671270271896162285 1.879703433218243180391482
3.617822059930945854944184 0.03811862671270271896162285 1.879703433218242958346877
3.626722608564850069967633 0.02258639064717895411638082 1.875588177963707803286297
3.637448588587869124921781 0.03446776393447623793031553 1.885179727385583037246874
3.623741783911457847722204 -0.004785293379369408642287631 1.871472922709172426181112
3.620781921921201629288589 0.0011344306011429061437773 1.869647491320059362607253
3.61188137328729697017593 0.00709607990792775894517419 1.873762746574594517667833
3.605940686643648085407676 0.02854803995396381147142684 1.879703433218243180391482
3.605940686643648085407676 -0.01435588013810829184635498 1.879703433218243180391482
3.683862986420666452147543 0.01561099556092931418815883 1.882275844693131361395899
3.691931493210333314891614 0.03280731531492908636948869 1.890346169017262489830955
3.691931493210333314891614 -0.001585324193070443464861907 1.890346169017262489830955
3.681900261424487119654714 -0.01833075035514271020065102 1.881370608337153971234557
3.690800810058392222856583 -0.03386298642066644382087048 1.889743321418190236116175
3.673302101547487374944012 -0.03446776393447626568589115 1.888834337613011005174712
3.673302101547487374944012 0.03446776393447623099142163 1.888834337613011005174712
3.681900261424488007833133 0.01833075035514266509784065 1.881370608337153971234557
3.690800810058392222856583 0.03386298642066641606529487 1.889743321418190236116175
3.674962437786761348945674 -0.001134430601142953198151586 1.873903131612095096514281
3.674130395942523552577086 0.0005296530873330671483623089 1.873600742855190404156929
3.665532236065523363777174 0.01439780546438075570225834 1.881064472131047438097085
3.657766118032761859524271 0.03219890273219035148333234 1.888830590163809164394593
3.657766118032761859524271 -0.00340329180342882012949568 1.888830590163809164394593
3.726828601423778586365643 0.003008926454243136903304867 1.876180325030463835744854
3.728170995552571476139292 -0.0003241381966574459353239157 1.877846857355914167442279
3.722711058679564644080529 -0.01059573554935724394587826 1.886342259787576303153855
3.715908727677764034069696 -0.03027132867026705032031941 1.893171129893787885123402
3.715908727677764478158906 0.009079857571552548550775086 1.893171129893787885123402
3.726405342079396110221978 -0.0038554451430081156451668 1.87608120388273857948036
3.717909939647734418599612 -0.02019797361301733235050548 1.884048770761532098916291
3.712873262119109174506093 -0.03634225978757646413619398 1.892643294340919268847756
3.717909939647734862688822 0.02019797361301733235050548 1.884048770761532098916291
3.712873262119109618595303 0.03634225978757646413619398 1.892643294340919268847756
3.726405342079396554311188 0.003855445143008123885103311 1.876081203882738801524965
3.725062947950603664537539 -0.0005223804921075330233784517 1.874414671557288247782935
3.724639688606221188393874 0.0003241381966574535247391231 1.874315550409563435607652
3.716144286174559496771508 0.01561099556092933327011707 1.882283117288356510954372
3.708072143087280281292806 0.03280004271970353435516898 1.890349805314875064610192
3.708072143087279393114386 -0.001578051597844869766498754 1.890349805314875064610192
3.188164163752750912550482 -0.004203003496698642579842975 1.942367167249449799726335
3.180531331002200978730343 0.0138646643355342467224256 1.934734334498899421816986
3.188164163752750912550482 0.03193233216776712041218289 1.942367167249449799726335
3.190039991247108019933876 -0.03400704861613516871710061 1.923989427075796898591875
3.181622259826347942635039 -0.01874138311503470780139402 1.933023260991913350181903
3.188891449635515407123876 -0.03473433449889954532929792 1.941693451966647998574445
3.181622259826347942635039 0.01874138311503472514862878 1.933023260991913350181903
3.188891449635516295302295 0.03473433449889955226819183 1.941693451966647998574445
3.190039991247108019933876 0.03400704861613517565599452 1.923989427075796898591875
3.190097604034552780660761 -0.001905920273514690246874359 1.907996475691932092288994
3.182043515555175616782435 0.01543446167595382070847343 1.915992951383864495440434
3.190097604034552780660761 0.03277484362542232299020384 1.907996475691932092288994
3.173625784134415539483598 0.001401001165566233275239227 1.925026785299980947030463
3.173262141193032626063086 -0.0006737152828018195833276183 1.926064143524165217513655
3.736377622355143479637718 0.01057808862304627714467919 1.927244755289712729862117
3.743188811177571739818859 0.03028904431152308618369062 1.934055944112140767998653
3.743188811177571739818859 -0.009132867065430533629055709 1.934055944112140767998653
3.72955761006955999192769 -0.03637762235514347547438163 1.920433566467284691725581
3.72955761006955999192769 0.03637762235514347547438163 1.920433566467284247636371
3.722746421247131287657339 -0.01666666666666666296592325 1.91362237764485598745523
3.715926408961547799947311 -0.02421811319421376951233071 1.906811188822427727274089
3.715926408961548688125731 0.009115220139119559888962741 1.906811188822427727274089
3.784070522011366399794952 0.01519228931059997747543555 1.931858955977266534276282
3.792035261005683111079634 0.03259614465530000226856089 1.939823694971583467605569
3.792035261005683111079634 -0.002211566034100056424988034 1.939823694971583245560964
3.779135494139634676713513 -0.02044814436651016045787266 1.928398305461601403010263
3.788990971983873023987144 -0.03407052201136668428960164 1.937516594627806343353882
3.770433566467284780543423 -0.03637762235514346853548773 1.934055944112141212087863
3.770433566467284780543423 0.03637762235514348241327554 1.934055944112141434132468
3.779135494139634676713513 0.02044814436651018821344827 1.928398305461601625054868
3.788990971983873468076354 0.03407052201136670510628335 1.937516594627806565398487
3.774215044167127608432111 -0.003044289021810124389044727 1.922740666811061593932664
3.772324305317205972443162 0.0007371886780333866554318356 1.921587116639172920784517
3.763622377644856076273072 0.01057808862304628928774353 1.927244755289712729862117
3.756811188822427816091931 0.03028904431152308965313757 1.934055944112141212087863
3.756811188822427816091931 -0.009132867065430528424885281 1.934055944112141212087863
3.82691628705500308527121 0.003128866658897098453062657 1.926212579603891139612415
3.82830479352167341033919 -0.0003518537255564162247178928 1.927952939796118148052528
3.822924399984459320478436 -0.01040893334887237238473023 1.936462199992230015510586
3.816155499980575349638912 -0.03020446667443613120163093 1.943231099996114652483925
3.816155499980575349638912 0.009386599976691372554382653 1.943231099996114652483925
3.826371765853208373187044 -0.004217909062486849616768758 1.926019912127652888855778
3.817862505657097393907407 -0.02053272200359709115380369 1.933791983645731349383823
3.813026633321678460220028 -0.03646219999223040963975961 1.942493911318081467598518
3.817862505657097393907407 0.02053272200359710850103845 1.933791983645731349383823
3.813026633321678460220028 0.03646219999223042351754742 1.942493911318081689643122
3.826371765853208817276254 0.004217909062486875637620898 1.926019912127652888855778
3.824983259386537604029854 -0.000737188678033335372669077 1.924279551935425880415664
3.824438738184742891945689 0.0003518537255564413782082944 1.924086884459187629659027
3.815929477988632356755261 0.01519228931059997574071208 1.931858955977265868142467
3.807964738994315645470579 0.03259614465529998145187918 1.939823694971583023516359
3.807964738994315645470579 -0.002211566034100042113519358 1.939823694971583023516359
3.189667699833429015399133 -0.002398760199885927903162841 1.992066460033314223565526
3.181734159866743461009264 0.01506749320007601602999792 1.984132920066628447131052
3.189667699833429015399133 0.03253374660003799379026646 1.992066460033314223565526
3.188164163752751356639692 -0.03473433449889956614597963 1.972898498251650645229915
3.180832038218336599300073 -0.01886725456552821103550777 1.981631624951631476250213
3.189066285401158218348883 -0.03413292006662864419563874 1.990665458867748149884846
3.180832038218336599300073 0.01886725456552813817712178 1.981631624951631476250213
3.189066285401158218348883 0.03413292006662861644006313 1.990665458867748149884846
3.188164163752751356639692 0.03473433449889953145151011 1.972898498251650645229915
3.188164163752751356639692 -0.004203003496698665998609901 1.957632832750550111455823
3.180531331002200978730343 0.01386466433553419815016827 1.965265665501100489365172
3.188164163752751356639692 0.03193233216776709959550118 1.957632832750550555545033
3.173199205467786221390725 0.0007995867332952389001932136 1.973998792201081542430074
3.173499912683921841960455 -0.001401001165566267319187443 1.975099086150511995541024
3.836462199992230370781954 0.01040893334887237238473023 1.977075600015538725529041
3.843231099996114785710688 0.03020446667443619018222911 1.983844500019423584546985
3.843231099996114785710688 -0.009386599976691431534980836 1.983844500019423584546985
3.829693299988345955853219 -0.03646219999223047902869865 1.970306700011654088555701
3.8296932999883450676748 0.03646219999223046515091085 1.970306700011654088555701
3.822924399984460652746066 -0.01666666666666667684371106 1.963537800007769007493152
3.816155499980575349638912 -0.02394673335664190827465347 1.956768900003884370519813
3.816155499980575349638912 0.009386599976691419391916504 1.956768900003884370519813
3.88396748751956799594609 0.01618523666591832610439639 1.982458464146724441690139
3.891983743759784175608729 0.03348605751881950781667641 1.990868159572801054935098
3.891983743759784175608729 -0.001115584186982879026650561 1.990868159572800610845889
3.880771400746184429664254 -0.02042968751179825848129923 1.980137246559949604218787
3.890669167408966622190292 -0.03396748751956785161709718 1.98979429822235709401923
3.872120990319733557782911 -0.03646219999223040963975961 1.985658790327502920547431
3.872120990319733557782911 0.03646219999223042351754742 1.985658790327503142592036
3.880771400746184429664254 0.02042968751179830011466265 1.980137246559949604218787
3.890669167408966622190292 0.03396748751956787937267279 1.989794298222357316063835
3.874069720856785359330843 -0.003128866658897053350252282 1.972801412484316729845091
3.872188210434219790556654 0.0006341541862345557176508515 1.971554056247985409200396
3.86353780000776936276452 0.01040893334887240187502933 1.977075600015538725529041
3.856768900003884503746576 0.03020446667443614507941874 1.983844500019423584546985
3.856768900003884503746576 -0.009386599976691358676594845 1.983844500019423584546985
3.902454738108417586772703 -0.04591041954642869488134593 1.998365157654844903589719
3.903679632571940949503642 -0.01584677090340491645292786 1.996730315309690029224043
3.902454738108417586772703 0.01421687773961876656569903 1.998365157654844903589719
3.902044790226786297182571 -0.04673031530969035118872057 1.998124442654470644953335
3.902044790226786297182571 0.04673031530969044139434132 1.998124442654471089042545
3.901634842345155451681649 0.04624888530894208371613274 1.997883727654096830406161
3.90326968469031010400272 0.01618523666591839896278238 1.996489600309315992632264
3.901634842345155451681649 -0.01387841197710537599618874 1.997883727654096386316951
3.192486571464900890759964 0.004919428789401087027954862 2.012432857324500723450456
3.184973142929801159795034 -0.01666666666666664908813544 2.019946285859600898504596
3.192486571464900890759964 -0.02841390454393225017959423 2.012432857324500723450456
3.176474206031539182504275 -0.0003312071298577617256553296 2.026805413161396174359652
3.175488697668376492089237 0.001639809596467037972056247 2.026151111928091719249778
3.182953858031624339020027 -0.01910606299642892552670403 2.017086778098252430879711
3.19168698473160539208493 -0.03497314292980033267888018 2.010793047728033577925544
3.175254507866657860404302 -0.002770603459620039031585659 2.025585714996514852259679
3.175254507866657860404302 0.002770603459620108420524698 2.025585714996514852259679
3.182953858031624783109237 0.01910606299642897062951441 2.017086778098252430879711
3.19168698473160583617414 0.03497314292980035349556189 2.010793047728034022014754
3.189667699833429015399133 -0.00239876019988588106562899 2.007933539966685998479079
3.181734159866743461009264 0.01506749320007607674531958 2.015867079933371108779738
3.189667699833429015399133 0.03253374660003800766805426 2.007933539966685554389869
3.17403480970177653830433 0.0003312071298578312230145859 2.024366016831633530159706
3.174268999503495169989264 -0.0007995867332952397675549516 2.024931413763210397149805
3.237567142675499276549544 -0.004919428789401041925144487 2.042486571464899647310176
3.230053714140399989673824 0.01338704747373266508436718 2.034973142929800360434456
3.237567142675499276549544 0.03169352373686636081817625 2.042486571464900091399386
3.222540285605300258708894 -0.0349731429298003743122436 2.027459714394700185380316
3.222540285605299814619684 0.0349731429298003743122436 2.027459714394700629469526
3.207513428535099908600614 0.004919428789401111314083526 2.012432857324500723450456
3.215026857070200083654754 -0.01338704747373259569542814 2.019946285859600454415386
3.207513428535100352689824 -0.03169352373686629836813111 2.012432857324500723450456
3.934395439562631935359605 0.01472770812891039532432913 2.031301747835156046306793
3.942197719781315612408434 0.03245648102487552755235356 2.039196655014261061467096
3.942197719781315612408434 -0.003001064767054697438736222 2.039196655014260617377886
3.925941000996279406365375 -0.03439543956263180213284159 2.023499467616471925168753
3.925941000996280294543794 0.03439543956263176049947816 2.023499467616472369257963
3.918138720777595729316545 -0.01666666666666671153818058 2.01560456043736779818687
3.909684282211244976679154 -0.03145133134077324893462801 2.00780228021868367704883
3.909684282211244976679154 0.001882001992560088489761516 2.00780228021868367704883
3.975381099289288844289558 0.000400622255687544163126057 2.025019522966398533014853
3.975491016336410332598916 -0.0001807881614452084705242652 2.025310228174964866099117
3.967638610155678868807172 -0.01552402420001709922037225 2.033733955589020592213956
3.959676286927826360795279 -0.03259131312237134592280086 2.041866977794509985244531
3.959676286927826360795279 0.001543264722337185645972824 2.041866977794509985244531
3.97494826476722540320452 -0.00126629129981456088269165 2.024767476605779936704721
3.966524537353169677089681 -0.01775216980503605684882373 2.032221724750957747573921
3.959104965694502098472185 -0.03373395558902095303643875 2.040897498525631625909682
3.966524537353169677089681 0.01775216980503598052099079 2.032221724750957747573921
3.959104965694502098472185 0.03373395558902091140307533 2.040897498525632069998892
3.97494826476722629138294 0.001266291299814447041463539 2.024767476605779936704721
3.974838347720105247162792 -0.0006848808826818081948312189 2.024476771397213603620457
3.974405513198041361988544 0.0001807881614450945750860456 2.024224725036595451399535
3.965981785783985191784495 0.01472770812891039879377608 2.031678973181773262268734
3.957990892891992462665485 0.03207925567825883894634842 2.039385267687569225358857
3.957990892891992462665485 -0.002623839420438000159113701 2.039385267687569225358857
3.242227645955713555281363 0.003365875734281154052496277 2.061138229778567421135449
3.234455291911427110562727 -0.0166666666666666664353702 2.068910583822853865854086
3.242227645955713555281363 -0.02996745759905218922658499 2.061138229778567421135449
3.225952590948772957801793 -0.0003387352586384367869598577 2.076291326207412524240681
3.225222244030407470205546 0.0011219585780937069586366 2.075899714547684737908639
3.2314345982276790891774 -0.01942843484122737038322093 2.066407741157479271976172
3.240587836359246409756452 -0.03445529191142704394934526 2.06001627120047370311795
3.224571706861492970119798 -0.003100503433199143336895798 2.074910442120132092469476
3.224571706861492970119798 0.003100503433199153311555785 2.074910442120131648380266
3.2314345982276790891774 0.01942843484122737385266788 2.066407741157479271976172
3.240587836359246409756452 0.03445529191142703701045136 2.06001627120047325902874
3.237567142675499276549544 -0.004919428789401008098036705 2.057513428535099553329246
3.230053714140398657406195 0.01338704747373266508436718 2.065026857070199284294176
3.237567142675499276549544 0.03169352373686633306260063 2.057513428535099553329246
3.223190822774212538348593 0.0003387352586384466531996273 2.07352955803285166069827
3.223841359943127038434341 -0.001639809596466999808139775 2.074518830460404306137434