# geometry NO_DATA 648
#  x  y  z
3.248844015538802754150538 0.04251791294537111964846332 1.793673897406567796508625
3.247688031077606396479496 -0.01666666666666665602702935 1.795102972011488606796092
3.248844015538802754150538 0.009184579612037783308275962 1.793673897406567796508625
3.242788684087045680826122 0.006867972685545517888550116 1.797688031077606218843812
3.239045321557681766933001 -0.02415339172539418544083389 1.798844015538803020604064
3.239045321557682655111421 0.03788933709648520387069937 1.798844015538803020604064
3.246642436857031022157116 -0.04768803107760635762168988 1.794057377790913010429108
3.241743089866469862414533 -0.04768803107760635762168988 1.796642436857030844521432
3.241743089866469862414533 0.04768803107760636456058378 1.796642436857030400432222
3.246642436857030578067906 0.04768803107760636456058378 1.794057377790913010429108
3.29525643063731799031757 0.02603807287338062020909391 1.780781642236063166961912
3.290512861274635270092404 -0.01666666666666666990481716 1.78327546707400763636997
3.29525643063731799031757 -0.007295260459952716998455191 1.780781642236063166961912
3.276451390718142953062397 -0.0114562744463169684239201 1.787907665164459647400008
3.267133489524333800346767 0.007179527941301640583948718 1.790046038416967633111199
3.289459051846353787595945 -0.04051286127463495090328394 1.782221657645726597962721
3.264528293414159065832791 -0.03530246905428525289183384 1.790066175461024755577455
3.272792385179687180141173 -0.04051286127463495090328394 1.78687399278023595350362
3.275397581289862358744358 0.03530246905428527370851555 1.786853855736178831037364
3.263474483985877583336332 0.04478960777965033251968308 1.789012366032743717170206
3.289459051846353787595945 0.04051286127463495090328394 1.782221657645726597962721
3.252605196110174734513976 0.03961948964741508760756261 1.792224685757589641710297
3.255210392220349469027951 0.01149654853443144754410188 1.79220454871353251924404
3.252605196110174734513976 -0.01662639257855221680548752 1.792224685757589641710297
3.335496893333381507318336 -0.002009851316945737882690981 1.771831514341477786800283
3.342748446666690131934274 0.01682037534976983661483274 1.771908368683029699752751
3.342748446666690131934274 -0.02084007798366133493161989 1.771908368683029699752751
3.325256394564388262580223 -0.02056182283142635527917186 1.773092834564339526082222
3.334455525980076551206821 -0.03549689333338224006553219 1.772953706988222188911664
3.3158412812310307238306 -0.03506492949804411451975028 1.775270553697070541332437
3.3158412812310307238306 0.03506492949804413533643199 1.775270553697070541332437
3.325256394564388262580223 0.02056182283142639691253528 1.773092834564339526082222
3.334455525980076551206821 0.0354968933333822678211078 1.772953706988222188911664
3.326297761917692330513319 -0.001731596164710756495519473 1.771970641917595123970841
3.324350183835312666502659 0.002163560000048949695516942 1.772186623835263930004658
3.314935070501955127753035 0.002191878265412357425223622 1.774364342967994945254873
3.307467535250977697103281 0.02059014109678980464224196 1.776326080183056932426666
3.307467535250977697103281 -0.01620638456596510887375295 1.776326080183056932426666
3.388162523469536058229323 -0.002319800265357705761071205 1.769010909731118630361379
3.394081261734767984705741 0.01917605653751142114060713 1.770265604666541037204297
3.394081261734767984705741 -0.02381565706822683786691996 1.770265604666541037204297
3.373964049217129002045112 -0.0262520668282654502656559 1.769134859080926158725333
3.384675487563160167781007 -0.03816252346953579593913375 1.77035306396094593850421
3.363216120815693876977548 -0.03808954335872966057152667 1.770544528490554769817322
3.363216120815693876977548 0.03808954335872966751042057 1.770544528490554769817322
3.373964049217129002045112 0.02625206682826546414344371 1.769134859080926158725333
3.384675487563161055959426 0.03816252346953579593913375 1.770353063960945494415
3.377451085123504004315009 -0.004756210025396325098701045 1.767792704851099294671712
3.372658385042704765055532 0.004829190136202467405202032 1.767829194906501921735753
3.361910456641269639987968 -0.002009851316945751760478789 1.769238864316130532827742
3.35595522832063508644751 0.01941302537511724324303941 1.770612043670356072766481
3.35595522832063508644751 -0.02343272800900875196816742 1.770612043670356072766481
3.436179952222553346530276 -3.239391986234000519887313e-05 1.772137184150848421282376
3.44308997611127676208298 0.01948089163602490653248722 1.773544296635527262040455
3.44308997611127676208298 -0.01954567947574958886036711 1.773544296635527262040455
3.424185445069892530511879 -0.02272626455925383370804127 1.771338826180672620935752
3.434125267904909240002098 -0.03617995222255391413179737 1.772929118722424757237377
3.414428802291949338609811 -0.03654631233669992235180146 1.771602235492603982791593
3.414428802291949338609811 0.03654631233669991541290756 1.771602235492603982791593
3.424185445069892530511879 0.02272626455925382676914737 1.771338826180672398891147
3.434125267904909240002098 0.03617995222255391413179737 1.772929118722424535192772
3.426240129387537081129267 -0.003212979003366587746337579 1.770546891609096284980751
3.423210330441243343102542 0.002846618889220575189524798 1.77036371155202321148181
3.413453687663299707111264 -0.00231980026535771226628424 1.770627120863954573337651
3.406726843831649809146711 0.01755984540467554408382789 1.771073710232959008692433
3.406726843831649809146711 -0.02219944593539096427958768 1.771073710232959008692433
3.493405268188091383763094 0.0243057044291034515803851 1.780900436241012130267336
3.486810536376182767526188 -0.01666666666666666990481716 1.780558120402642829915862
3.493405268188091383763094 -0.009027628904229886494525736 1.780900436241012130267336
3.477103283251353538219064 -0.002747839582990126844341816 1.779851122834344323564437
3.473990761938433369238055 0.003477203042849450441431625 1.779486441104414673475276
3.48625289106552260776084 -0.03681053637618278417953377 1.780000475091983336284329
3.467031348396595547001198 -0.02289170929250624111905843 1.778096324352988588657354
3.469586224398856444395278 -0.03681053637618278417953377 1.777903360772258523070377
3.476545637940694266632136 0.02289170929250624111905843 1.779293477523684607888299
3.46647370308593583132506 0.03608117291632345624563527 1.777538679042328872981216
3.48625289106552260776084 0.03681053637618277724063987 1.780000475091983336284329
3.456959413541837555783331 0.01938211232979445211577207 1.776341525871632409661061
3.463918827083676266198609 -3.239391986233595976951705e-05 1.777731642623058494478983
3.456959413541838443961751 -0.01944690016951913097420501 1.776341525871632409661061
3.547199679725091758797362 0.03764171724579620792461299 1.790442037520703522091026
3.544399359450184139319617 -0.0166666666666666664353702 1.791020538347990243011054
3.547199679725091758797362 0.00430838391246287505387258 1.790442037520703522091026
3.531763057375936654125326 -0.008605937481829546015221766 1.790368994857766793415976
3.521927075576595456141149 0.01106602611685205024560918 1.78913895054025529063324
3.543117265108821190011668 -0.04439935945018537444273221 1.789738444006626849613895
3.517896710984177222059088 -0.03633863026534826096147768 1.786916899159134430874474
3.526450598442154138467686 -0.04439935945018538832052002 1.786864849135281874126235
3.530480963034572372549746 0.03633863026534826790037158 1.789086900516402955929607
3.516614616642813828661929 0.04193927081516288235540912 1.785634804817770815432709
3.543117265108820745922458 0.04439935945018538832052002 1.789738444006626849613895
3.504030364592417789992851 0.02943443886808355669515436 1.783464803460502068332971
3.508060729184836468164121 0.004161834719587338173030222 1.785686854841623372180948
3.504030364592417789992851 -0.02111076942890888208381739 1.783464803460502068332971
3.582499243667760513432086 -0.01579605624662914001299363 1.79829529991438930025538
3.568806671962295062883186 0.01412787691548356497350802 1.796590599828779222235653
3.582499243667760513432086 0.04405181007759626649056273 1.798295299914389744344589
3.567101971876684984863459 -0.04659059982877936795242491 1.794916478812194959857607
3.567101971876684984863459 0.04659059982877937489131881 1.794916478812195181902212
3.551704700085609900384043 0.03983295762439019449541178 1.791537657710000619459834
3.553409400171219978403769 0.009909024462277496447804026 1.79321177872658488183788
3.551704700085609900384043 -0.02001490869983520853869763 1.791537657710000397415229
3.194736574585868460474103 0.01834705267259179040095773 1.823610478086722608281889
3.189473149171738075580151 -0.01666666666666667684371106 1.828910100922164660985914
3.194736574585868460474103 -0.01498628066074154940867658 1.823610478086722608281889
3.176993767016452530072002 -0.008292097643903031597978348 1.839473149171737986762309
3.169777810275299145814643 -0.03109858014897440292578779 1.844736574585869037790076
3.169777810275299145814643 0.01451438486116834493400152 1.844736574585869037790076
3.18765362269820418106292 -0.03947314917173803949790312 1.827090574448630988513287
3.17517424054291907964398 -0.03947314917173803949790312 1.837653622698204092245078
3.17517424054291952373319 0.03947314917173803949790312 1.837653622698204092245078
3.18765362269820418106292 0.03947314917173803949790312 1.827090574448631210557892
3.218756300545372539545497 -0.04506931806644239035808397 1.80698898086926584838352
3.206988980869266203654888 -0.04506931806644239035808397 1.813092599286359574151106
3.206988980869265759565678 0.04506931806644239035808397 1.813092599286359352106501
3.218756300545372539545497 0.04506931806644239035808397 1.806988980869265626338915
3.225999980318990711936067 -0.02153467871423022164667493 1.802465340966778573061902
3.216698001609663570832254 0.006867972685545509214932736 1.804930681933557545804092
3.225999980318991156025277 0.03527062408532123660709345 1.802465340966778573061902
3.204930681933557679030855 -0.004459429832479582661575179 1.811034300350651271571678
3.20246534096677892833327 0.02394322156729614473058554 1.814672577800966024597074
3.20246534096677892833327 -0.03286208123225531352318285 1.814672577800966024597074
3.599725931178224147544142 -0.01607846533772522290561824 1.800568169486246539179319
3.599862965589111674091782 0.01698079917383225542759639 1.800725235739829344083773
3.599862965589111674091782 -0.04913772984928270470827982 1.800725235739829344083773
3.598593570713520595205637 -0.04972593117822414476858484 1.80043113507535856854247
3.598593570713520151116427 0.04972593117822414476858484 1.80043113507535856854247
3.598456536302632180479577 -0.01666666666666666990481716 1.800274068821775763638016
3.597324175837928628141071 0.01385380809370770523181182 1.800137034410887793001166
3.597324175837928628141071 0.04718714142704104330672266 1.800137034410887793001166
3.645178188260285612187772 -0.006872227853118502774454335 1.809719031146487910888254
3.647589094130142761684965 0.02163929374050077569791029 1.812205344683404995009823
3.647589094130142761684965 -0.03538374944673779165515981 1.812205344683404995009823
3.614829639594073107389249 -0.0448010418902703572152646 1.802984784667120532475337
3.631307733075732180338946 -0.0451781882602859466424583 1.807693430888887009544419
3.60057387879726364943167 -0.04962285362998442028725776 1.800867979461734380564053
3.60057387879726364943167 0.04962285362998442028725776 1.800867979461734380564053
3.614829639594073107389249 0.0448010418902703710930524 1.802984784667120532475337
3.631307733075732180338946 0.0451781882602859535813522 1.807693430888887009544419
3.628700094778626539238076 -0.01628952029665105966094174 1.805010384924721655863777
3.614632907166824615785572 0.0118448549269526276495057 1.80278805223987248496087
3.600377146370015157827993 -0.01607846533772522290561824 1.800671247034485888960376
3.600188573185007179233708 0.01687772162559252053792846 1.800776774513948907951999
3.600188573185008067412127 -0.04903465230104296634916494 1.800776774513948907951999
3.685674929004016497913199 0.004310549427165371108583436 1.824813679042899039473014
3.692837464502008337774441 0.02331881176451522721948528 1.828139751591823625176403
3.692837464502008337774441 -0.0146977129101845075537236 1.828139751591823625176403
3.673046546211575336116084 -0.02332987345711754617605393 1.820704950540891875476746
3.68354068510479315534667 -0.03567492900401652428099553 1.825021030814358624638771
3.663542415042901012611765 -0.03765494445310102467061597 1.818439634449674269234265
3.663542415042901012611765 0.03765494445310103854840378 1.818439634449674713323475
3.673046546211575336116084 0.02332987345711758780941736 1.820704950540891875476746
3.68354068510479226716825 0.03567492900401654509767724 1.825021030814358624638771
3.675180790110799566861033 -0.004321611119767669248470376 1.820497598769432290310988
3.67184918671557358749169 0.002341595670683233043618543 1.819507591044890348896956
3.66234505554689926398737 -0.006872227853118494968198693 1.817242274953672964699081
3.656172527773449587584764 0.01411604993331585719551491 1.815966966586997521915237
3.656172527773449587584764 -0.02786050563955286968331748 1.815966966586997521915237
3.735232039531639181006994 -0.01164985991803727666260571 1.846881899449677177926787
3.722293170591304267702526 0.01544727231465003493282584 1.843763798899354044991128
3.735232039531639181006994 0.04254440454733733611991653 1.846881899449677177926787
3.719175070040981356811471 -0.04376379889935397976552522 1.840703840829926107858228
3.719175070040981356811471 0.04376379889935397282663132 1.840703840829926329902833
3.703118100550323532615948 0.03140768165985266535678022 1.834525782210175481878878
3.706236201100646443507003 0.004310549427165352893986938 1.837585740279602974922568
3.703118100550323532615948 -0.02278658280552196130352982 1.834525782210175259834273
3.14565766656798562195263 0.0177179044737001099851792 1.872060237905714297212967
3.141315333135971332723102 -0.0166666666666666664353702 1.879516618804835559330968
3.14565766656798562195263 -0.01561542885963321594666731 1.872060237905714297212967
3.132879832877285330994255 -0.0002043338507044985545742233 1.891315333135971332723102
3.128786666050614506673355 -0.02485300032000922754171768 1.89565766656798562195263
3.128786666050614062584145 0.02444433261860022923994684 1.89565766656798562195263
3.139517216340150795872432 -0.04131533313597138962203204 1.877718502009015022480298
3.131081716081465238232795 -0.04131533313597139656092594 1.889517216340150795872432
3.131081716081465238232795 0.04131533313597138962203204 1.889517216340150795872432
3.139517216340150795872432 0.04131533313597138268313813 1.877718502009015466569508
3.158512356674317622662329 -0.04710810613242222277818883 1.854325072162936294262181
3.154325072162936116626497 -0.04710810613242222277818883 1.859193024498467128324819
3.154325072162936116626497 0.04710810613242220196150711 1.859193024498467128324819
3.158512356674317622662329 0.04710810613242220890040102 1.854325072162936294262181
3.159820515956552000602642 -0.03873353710965857926717959 1.851445946933788722077452
3.15707917837895912782642 -0.0082920976439030350674253 1.852891893867577799426272
3.159820515956552444691852 0.02214934182185251954066985 1.851445946933788722077452
3.152891893867577621790588 -0.006930761995604624477185229 1.85775984620310863348891
3.151445946933788988530978 0.02351067747015092579410123 1.861181851604850834291938
3.151445946933788988530978 -0.03737220146136016607485431 1.861181851604850834291938
3.749768621207093310943037 -0.01614803971799932263975208 1.850490692267239722923478
3.749884310603546655471519 0.01695391482242831343585365 1.850634316345120211622088
3.749884310603546655471519 -0.04924999425842696565425172 1.850634316345120433666693
3.749274613427538760390689 -0.04976862120709429904152898 1.850375002870786822484206
3.749274613427538760390689 0.04976862120709430598042289 1.850375002870786378394996
3.749158924031085859951418 -0.0166666666666666594964763 1.850231378792905889696385
3.74866491625152997713144 0.01521589352174434334186159 1.850115689396452989257114
3.74866491625152997713144 0.048549226855077676212602 1.850115689396452989257114
3.792575092688736937418525 -0.001601839813480930270819802 1.864957320737854695735791
3.796287546344368379891421 0.02430658620859030283334334 1.868777280508816751591894
3.796287546344368823980631 -0.02751026583555216467602555 1.868777280508816751591894
3.763575152213845420590133 -0.04216812155596186967310146 1.854333392858441342809783
3.780038333314124088246899 -0.04257509268873789498588422 1.861662320718646235206961
3.750620939202809811519046 -0.0495930288672239774627748 1.85088025267714417765319
3.750620939202809811519046 0.0495930288672239774627748 1.85088025267714417765319
3.763575152213844976500923 0.04216812155596187661199536 1.854333392858441342809783
3.780038333314124088246899 0.04257509268873789498588422 1.861662320718645791117751
3.776111911588458713850969 -0.01625969553389064806148134 1.857628392877650025383218
3.763361184143811044577888 0.00924175935540456558459077 1.854119424788407188842143
3.750406971132775879596011 -0.01614803971799932263975208 1.850666284607109801640945
3.750203485566387939798005 0.01677832248255798838765251 1.850722112515055473025427
3.750203485566387939798005 -0.04907440191855664407549753 1.850722112515055473025427
3.848964534119949210122513 0.04596530487878082438246707 1.897000770758832111084757
3.847929068239897887337975 -0.01666666666666665602702935 1.896947186559339693090465
3.848964534119949210122513 0.01263197154544749324645014 1.897000770758832111084757
3.836231073585906869993778 -0.006729322641315741218570601 1.892960396227222563680925
3.82556854481196673134491 0.01459573490656472689874779 1.889027190094598296354889
3.847225275546466427556425 -0.047929068239898037218083 1.896243393865908455353519
3.820599872799290697145125 -0.03799172421454712761379469 1.884861608867199667116665
3.830558608879799820101653 -0.04792906823989804415697691 1.888091022306392918750362
3.835527280892475410212228 0.0379917242145471484304764 1.892256603533791103899375
3.819896080105859681452785 0.04006265597464910704905705 1.884157816173768207335115
3.847225275546466427556425 0.04792906823989805109587081 1.896243393865908233308915
3.804968672012674524296472 0.02179414949450150795762227 1.876762821507176770552405
3.809937344025350558496257 -0.001601839813480914007787215 1.880928402734574955701419
3.804968672012675412474891 -0.02499782912146335592251667 1.876762821507176770552405
3.853531969017074843009141 -0.04604827022309071482553122 1.899580239240165724368126
3.85239562564828919022375 -0.01355445840942669406825605 1.899160478480331093464883
3.853531969017074843009141 0.01893935340423732321957218 1.899580239240165724368126
3.851975864888454559320508 -0.0491604784803306854579219 1.898598357559607041622485
3.851975864888454559320508 0.04916047848033069933570971 1.898598357559607041622485
3.850419760759834719721084 0.04719671511921347956119988 1.897616475879048358876844
3.850839521519669350624326 0.01470290330554945706920122 1.898178596799772188674638
3.850419760759834719721084 -0.01779090850811456889224438 1.897616475879048358876844
3.110645734754381663833556 -0.03663936694176929409483279 1.947285101696150988459522
3.109395214832964882134547 -0.008735830216134009978956598 1.944570203392302021327964
3.110645734754381663833556 0.01916770650950128107581349 1.947285101696150988459522
3.1189471135579140970151 -0.04166149913622055334094796 1.910715947149932869564282
3.113430845453781792286918 -0.03623170252852250805553069 1.924667715512750731932101
3.113227013247158669884129 -0.0445702033923019574901403 1.937165131747527357930494
3.113430845453781792286918 0.03623170252852250805553069 1.924667715512750731932101
3.113227013247158225794919 0.0445702033923019574901403 1.937165131747527357930494
3.1189471135579140970151 0.04166149913622055334094796 1.910715947149933313653491
3.120631583247851725815281 -0.02519916632025837738284579 1.904169250431889892638537
3.116569667271760213367315 -0.0002043338507044950851272713 1.908338500863779430005707
3.120631583247851725815281 0.02479049861884938948941581 1.904169250431889892638537
3.111053399167627908639133 0.01123687005896862114995294 1.922290269226597292373526
3.109599047039587560448126 -0.008328165802887220470207552 1.932072787157525173284967
3.892148485831071091922695 0.0006217341733567374739699574 1.91649571458894074638124
3.896074242915535723597031 0.02610355333776119904354296 1.921214157924487908601918
3.896074242915535723597031 -0.02486008499104771368726219 1.921214157924487908601918
3.880963680377488955741683 -0.0421484858310711210660493 1.912569957504476336751509
3.880963680377488955741683 0.0421484858310711210660493 1.912569957504476336751509
3.877037923293024324067346 -0.01666666666666667684371106 1.907851514168928952486226
3.865853117839441743797124 -0.02140597257835558445138169 1.903925757084464764901099
3.865853117839441743797124 0.01192736075497775188880567 1.903925757084464764901099
3.926413812290415084049755 -0.019993827835584458002538 1.946407640125999538582846
3.918595445956207790061399 0.006154785749747642732698782 1.942815280251998899530008
3.926413812290415084049755 0.03230339933507975214155294 1.946407640125999538582846
3.91500308608220848327619 -0.04281528025199877324213915 1.938385173879344502978483
3.915003086082207595097771 0.04281528025199876630324525 1.938385173879344502978483
3.903592359874000550234996 0.02677034775868884775018586 1.930362707632689467374121
3.907184719748001189287834 0.0006217341733567374739699574 1.93479281400534408597025
3.903592359874000550234996 -0.02552687941197536586335204 1.930362707632689467374121
3.117467220333838273660376 -0.02896162669867457378769515 1.996428847032512665649051
3.11409033961815051583244 -0.002770599300316257430909506 1.992857694065024887208892
3.117467220333838273660376 0.02342042809804208494672828 1.996428847032511999515236
3.111292759555731812781687 -0.045004781885962609477847 1.957327341330465930724358
3.11089849429795339830207 -0.03786247595098762852572349 1.970422855029644981783576
3.115348918924110144246242 -0.04285769406502501488454016 1.98459191263929302095903
3.11089849429795339830207 0.03786247595098757301457226 1.970422855029644759738972
3.115348918924109700157032 0.04285769406502498712896454 1.984591912639292576869821
3.111292759555731812781687 0.04500478188596258172227138 1.957327341330465708679753
3.110428445507551487025921 -0.03707394543542994608253949 1.952497609057018745915002
3.108960636339304528519278 -0.00873583021613403079563831 1.954995218114037536238925
3.110428445507551487025921 0.01960228500316191224683848 1.952497609057018745915002
3.108566371081525225861242 0.009524360731691633441542422 1.968090731813216587298143
3.109639914991993769888268 -0.01167144855262929915851178 1.978688636455377292122648
3.946882513848672946465967 -0.0086157609232390998388329 1.957142939023041039448003
3.948441256924336784095431 0.02160008625876697757606237 1.959609648819091276550353
3.948441256924336784095431 -0.03883160810524520500930379 1.959609648819091276550353
3.943185316465877221503433 -0.04688251384867274385026548 1.955584195947377423863145
3.943185316465877221503433 0.04688251384867277160584109 1.955584195947377423863145
3.94162657339021382796318 -0.01666666666666664214924154 1.953117486151327186760795
3.937929376007417658911436 0.003037299598420423272365776 1.951558743075663571175937
3.937929376007417658911436 0.03637063293175375744414879 1.951558743075663571175937
3.983238679655736191875803 -0.01029123337367028254152324 1.993529913029406408497834
3.976324470283758572008992 0.01010192601847603038889289 1.987059826058812816995669
3.983238679655736191875803 0.03049508541062231903318036 1.993529913029406630542439
3.969854383313164980506826 -0.03705982605881295161021072 1.98088869923445365373027
3.969854383313164980506826 0.03705982605881297936578633 1.98088869923445365373027
3.956470086970594213227059 0.01177739846890718533600761 1.968247485439500454873496
3.962940173941187360640015 -0.008615760923239101573556376 1.97441861226386028427271
3.956470086970593769137849 -0.02900892031538541276924903 1.968247485439500454873496
3.137950571734602789319979 0.01630369524800219516169619 2.028534609222731877054002
3.143975285867301128206464 0.03758760031593776085312442 2.038995076047367405180921
3.143975285867301128206464 -0.00498020981993340956101024 2.038995076047367405180921
3.134256652883809834975182 -0.03795057173460222865735147 2.022509895090033538167518
3.134256652883809834975182 0.03795057173460226335182099 2.022509895090032649989098
3.128231938751111051999487 -0.01666666666666662133255983 2.012049428265397565951389
3.12453801990031809765469 -0.01482002756571395435392091 2.006024714132698782975694
3.12453801990031809765469 0.01851330576761937157792559 2.006024714132698338886485
3.150319589619315241435515 -0.04962725529379558020437457 2.049946844913110854946581
3.150239527439990361301625 -0.01640023213423950909639615 2.049893689826222331618055
3.150319589619315241435515 0.01682679102531655854213533 2.049946844913111299035791
3.150186372353101837973099 -0.04989368982622273407390168 2.049765359203778558594422
3.150186372353101837973099 0.04989368982622273407390168 2.049765359203778558594422
3.150053155086887990421474 0.04953071840755822463631119 2.049583873494446706331473
3.150106310173776513749999 0.01630369524800215352833277 2.049712204116890035265897
3.150053155086887990421474 -0.0169233279115539141101987 2.049583873494446706331473
3.997584077712461159137547 -0.007861187791930058371692169 2.006818661724905972221222
3.998792038856230135479564 0.02305622325386536344837829 2.010013440018505459505604
3.998792038856230135479564 -0.03877859883772546978342177 2.010013440018505459505604
3.995509668532135183482978 -0.04758407771246209172488761 2.005610700581136995879206
3.995509668532135183482978 0.0475840777124620709082059 2.005610700581136995879206
3.994301707388365763051752 -0.01666666666666668378260496 2.002415922287537952684033
3.992227298208039787397183 0.007686003730938079439582999 2.001207961143768976342017
3.992227298208039787397183 0.04101933706427141057559993 2.001207961143768976342017
4.019822848122509562074356 -0.02600763041145440213064433 2.045830478533964935650147
4.016165706260307999286852 -0.001013340010192321756846145 2.041660957067929160757558
4.019822848122509562074356 0.02398095039106975037701552 2.045830478533964935650147
4.011996184794272224394263 -0.0416609570679287374850297 2.033566551304666347732564
4.011996184794272224394263 0.0416609570679287444239236 2.033566551304666347732564
4.004169521466034886714169 0.01713310260933203002520209 2.021302624075367759814981
4.008339042932069773428339 -0.007861187791930039289733934 2.029397029838630572839975
4.00416952146603399853575 -0.03285547819319211554356386 2.021302624075367759814981
3.189165061705045545181747 -0.00425968809474222206978844 2.093424749799787321080657
3.1794454061528405475201 0.01592314483816675146909958 2.086849499599574997432683
3.189165061705045545181747 0.03610597777107572153854065 2.093424749799787321080657
3.15519347229665125809106 -0.04944654312315338584582491 2.055060255030437765810802
3.161635505230649734187409 -0.03629604272272902304452558 2.0651516714968920496176
3.177653682544643309881849 -0.03684949959957563997425822 2.081541609725135355546399
3.161635505230649734187409 0.03629604272272902304452558 2.06515167149689249370681
3.177653682544643309881849 0.03684949959957564691315213 2.081541609725135799635609
3.15519347229665125809106 0.04944654312315338584582491 2.055060255030437765810802
3.150543162970850463722172 -0.04918010859072622503740391 2.050276728438423123890288
3.150686674143059917696519 -0.01640023213423950909639615 2.050553456876846425416261
3.150543162970850463722172 0.01637964432224719990571771 2.050276728438423123890288
3.157128707077058393792868 0.003516166266242309705603031 2.060644873343300709223058
3.16342722883884697182566 -0.0161132097898200460361906 2.070459561371331691503883
4.036715466841279464915715 0.01015508274554301898495723 2.073439615904264066159612
4.038474045479796714630538 -0.006637925468507659132466614 2.081836120011288926434645
4.039743548025015229541168 0.009176930558943639446023433 2.093488416078876035442136
4.039254471931715606558555 -0.01764481885326604770902748 2.096744208039437840085384
4.039254471931714718380135 0.03599867997115331619273348 2.096744208039437840085384
4.036329277750173361027919 -0.03345967488071734108334709 2.079691352281665572832026
4.030745066372305451807279 -0.03997125880184100588099483 2.066280477575560770020502
4.037598780295390987760129 -0.04348841607887635879459154 2.091343648349252237750306
4.037598780295391875938549 0.04348841607887635879459154 2.091343648349252237750306
4.032889834101929693588318 0.03345967488071734108334709 2.068425245305184567712331
4.032503645010823589700522 0.04348841607887635879459154 2.074676981682586074384744
4.031131255463412443873494 -0.01666666666666666296592325 2.060028741198159707437298
4.027305622724061784367677 -0.01104208120835133144499451 2.055014370599080208990017
4.027305622724061784367677 0.02229125212498200142574589 2.055014370599080208990017
3.199736766857122383100887 -0.01599946239870381203829197 2.100596835276857365926162
3.199868383428560836279075 0.01707063779175286427625124 2.100798820839400171678335
3.199868383428560836279075 -0.04906956258916048835283519 2.100798820839400171678335
3.199496622514311106044715 -0.04973676685712333928046647 2.100465218705418912747973
3.199496622514311106044715 0.04973676685712333928046647 2.100465218705418912747973
3.199365005942873096955736 -0.01666666666666666296592325 2.1002632331428761069958
3.199124861600061819899565 0.01565991169529010185179629 2.100131616571437653817611
3.199124861600061819899565 0.0489932450286234347225367 2.100131616571437653817611
3.235923634490311506795024 0.008679969671217809684682365 2.126749683678630375993635