# geometry NO_DATA 844
#  x  y  z
3.242563433341135059606586 0.005380600046802934063872037 1.712817166705667748516362
3.235126866682270563302382 -0.01666666666666666990481716 1.720253733364536241623455
3.242563433341135059606586 -0.0279527332865304040110388 1.712817166705667748516362
3.21865801140768148513871 -0.01627104388251169111989647 1.735126866682270119213172
3.209625722791957347368452 -0.03473124389811497320090794 1.742563433341135059606586
3.209625722791957347368452 0.002189156133091588359029789 1.742563433341135059606586
3.227690300023400737927659 -0.03512686668226994851638167 1.712817166705666638293337
3.211221444748811215674777 -0.03512686668226994851638167 1.727690300023400071793844
3.211221444748811215674777 0.03512686668226994851638167 1.727690300023400071793844
3.227690300023400737927659 0.03512686668226994851638167 1.712817166705666416248732
3.292050475769883632892743 0.002302854619294524528283485 1.710252378849411281080961
3.28410095153976655524275 -0.0166666666666666664353702 1.718201903079530357132398
3.292050475769883632892743 -0.03103047871403880747509518 1.710252378849411281080961
3.274870851531963555913762 -0.001793533348938558969615231 1.726664384880902236574229
3.273590275754277634234768 0.0007676182064329855822548687 1.727177342452155039964623
3.276151427309646813057498 -0.03410095153976631932035701 1.710252378849411059036356
3.266153709095413582019773 -0.01922781822203821489036812 1.71974077579328565867911
3.259484760642980649691935 -0.03410095153976632625925092 1.711278293991913557192674
3.26692132730184425781772 0.01922781822203820795147422 1.718714860650782938478187
3.258204184865294283923731 0.03512686668227188446778086 1.711791251563166138538463
3.276151427309646813057498 0.03410095153976631932035701 1.710252378849411059036356
3.257436566658864052214994 0.005380600046804878688888607 1.712817166705669080783991
3.264873133317728104429989 -0.01307959996880034628241596 1.720253733364538462069504
3.257436566658864052214994 -0.03153979998440557125372052 1.712817166705669080783991
3.341964128728942995394391 0.001784772373650630192601363 1.709820643644708093589202
3.33392825745788545788173 -0.01666666666666667337426411 1.717856514915767629503307
3.341964128728942995394391 -0.03154856095968270462970295 1.709820643644708093589202
3.325211115021335928076951 -0.0007676182064335036140528823 1.725978733227768291413895
3.324529843855843047606413 0.0005949241245517069859999326 1.726065080268709195365773
3.32589238618682614401223 -0.03392825745788505265032597 1.709820643644708093589202
3.31658031962572596995642 -0.01802920899765188267327432 1.71811555603858989726973
3.309225719520159092468248 -0.03392825745788505265032597 1.709993337726589235359143
3.317175243750275726029031 0.01802920899765186879548651 1.71794286195670875549979
3.30854444835466665608692 0.034100951539766825859612 1.71007968476753013931102
3.32589238618682525583381 0.03392825745788505265032597 1.709820643644708093589202
3.307949524230116900014309 0.002302854619295022393921091 1.710252378849411503125566
3.315899048460233533575092 -0.01513143025380513963240592 1.718201903079531023266213
3.307949524230116900014309 -0.03256571512690528691358338 1.710252378849411503125566
3.391959272741058128985969 0.001755636446341817327732038 1.709796363705283761547093
3.383918545482115902700571 -0.01666666666666668378260496 1.717837090964228430323146
3.391959272741058128985969 -0.03157769688699152421662575 1.709796363705283761547093
3.375287750086506832758459 -0.0005949241245517905779874313 1.725882674211058009916542
3.374697681949839100923327 0.0005852121487823851685161625 1.725887530198942698689279
3.375877818223171011879913 -0.03391854548211574449378958 1.709796363705283983591698
3.366661810678782007499876 -0.01784680294000085334915617 1.717851658927882940730569
3.359211151556504848514351 -0.03391854548211573755489567 1.709806075681054027270989
3.367247022827561941937802 0.01784680294000083253247446 1.717841946952113563185094
3.358621083419837560768428 0.03392825745788510816147721 1.709810931668938716043726
3.375877818223171011879913 0.03391854548211573755489567 1.709796363705283983591698
3.358035871271057182241293 0.001784772373650681366943904 1.709820643644708093589202
3.366071742542114719753954 -0.01547681841756776838225917 1.717856514915767629503307
3.358035871271057182241293 -0.03273840920878619276113142 1.709820643644708093589202
3.441999353378398129876814 0.001996120270381170676982086 1.709996766891983099867502
3.433998706756796082117944 -0.01666666666666667684371106 1.717997413513588700340051
3.441999353378398129876814 -0.03133721306295216002535398 1.709996766891983099867502
3.425372767349071700948571 -0.0005852121487822268749989796 1.725957979497854122286071
3.424747474562949367538067 0.0006653734234628355713805914 1.725917898860513943759543
3.425998060135191369823815 -0.0339987067567961848135738 1.709996766891983988045922
3.416706747304007141252669 -0.01791725223891174612056432 1.71787717160156927498349
3.409331393468525206458253 -0.03399870675679619869136161 1.709916605617304519171284
3.417372120727467432743651 0.0179172522389117183649887 1.717957332876249409991942
3.40870610068240242895854 0.03391854548211554326586636 1.709876524979964118600151
3.425998060135191369823815 0.0339987067567961778746799 1.709996766891983988045922
3.408040727258942581556767 0.001755636446341625857628377 1.709796363705283983591698
3.416081454517884807842165 -0.01549624236910726073068734 1.717837090964228652367751
3.408040727258942581556767 -0.03274812118455613235701307 1.709796363705283983591698
3.492110939374931888323772 0.002665636249579811552223862 1.710554696874648117344009
3.484221878749862888469124 -0.01666666666666666990481716 1.718443757499721558090755
3.492110939374931888323772 -0.03066769708375352565532523 1.710554696874648117344009
3.475555858704798772862432 -0.00066537342346189621861835 1.726221232128260618665649
3.474778899284802324842758 0.0008885454165301028602724775 1.726109646131726460538403
3.476332818124790779990008 -0.03422187874986343247840637 1.710554696874649671656243
3.466778252663200277083888 -0.01822058550665866388795777 1.718108999510121748244273
3.459666151458124616624445 -0.03422187874986343247840637 1.710331524881583797892404
3.467666798079727108472525 0.01822058550665866388795777 1.718332171503188954275743
3.458889192038128612693981 0.03399870675679522724621506 1.710219938885049639765157
3.476332818124791224079217 0.03422187874986343247840637 1.710554696874649671656243
3.458000646621601781305344 0.001996120270380219614836381 1.709996766891982433733688
3.466001293243204717242634 -0.01533591981974834206337022 1.717997413513587590117027
3.458000646621601781305344 -0.03266795990987689940476812 1.709996766891982433733688
3.542488427948057960747974 0.004930567688328237573036628 1.712442139740270263814637
3.534976855896115210953212 -0.0166666666666666664353702 1.719953711792221895393595
3.542488427948057960747974 -0.02840276564500509096089509 1.712442139740270263814637
3.526199249854518047442298 -0.0008885454165282608007814247 1.727087795271045944645039
3.524933215864862745547725 0.001643522562782291380339972 1.726710306697919250495943
3.527465283844167576177142 -0.03497685589611562728684646 1.712442139740273816528315
3.517044155239793301603868 -0.01919873464597721818281073 1.718821246072846697927616
3.51079861717750052463316 -0.03497685589611562728684646 1.711687162594025313211432
3.518687677802569968577018 0.01919873464597721471336378 1.719576223219097865779759
3.509532583187845666827798 0.03422187874986158673262793 1.711309674020898174973127
3.527465283844167576177142 0.03497685589611562034795256 1.712442139740273816528315
3.507889060625068999854648 0.002665636249577965806445423 1.710554696874647007120984
3.515778121250138443798505 -0.01488957583361695535817404 1.718443757499719781733916
3.507889060625068999854648 -0.03244478791681188606377262 1.710554696874647229165589
3.594814521043438126923775 0.01888712626058415555707626 1.724072605217145337519469
3.589629042086877053208127 -0.01666666666666665602702935 1.729258084173730836141658
3.594814521043438126923775 -0.01444620707274917904838762 1.724072605217145337519469
3.580473947472154083726537 -0.001643522562778787889439802 1.732117470034933548461709
3.576504331813992187960594 0.006295708753544224101084126 1.72979137693955076215957
3.584443563130300436370135 -0.03962904208687755003293063 1.724072605217154219303666
3.568992759762048994076622 -0.02460589798298968081113891 1.72227980488760090693745
3.567776896463634273004573 -0.03962904208687755003293063 1.719420419026407076401597
3.575288468515577466888544 0.02460589798298969121947977 1.726931991078356931623716
3.56380728080547237723863 0.03497685589611213008431889 1.717094325931024290099458
3.584443563130300436370135 0.03962904208687755697182453 1.724072605217154219303666
3.557511572051943460337498 0.004930567688324745574679486 1.712442139740268487457797
3.565023144103887098310679 -0.01337962154112071894163094 1.719953711792218342679917
3.557511572051943460337498 -0.03168981077056617912113268 1.712442139740268709502402
3.625927394782794799255043 -0.01888712626063905608564397 1.744814521043434041303044
3.620741915826246160037272 0.004075249159562446127358371 1.739629042086868304650693
3.625927394782794799255043 0.02703762457976393446257291 1.744814521043434041303044
3.615556436869680201340316 -0.03962904208686815477058474 1.734443563130287246920602
3.615556436869680201340316 0.03962904208686816864837255 1.734443563130287246920602
3.605185478956565603425588 0.01888712626057476723362427 1.72407260521714045253816
3.610370957913131562122544 -0.004075249159626721968952001 1.729258084173721510268251
3.605185478956565603425588 -0.02703762457982822678403956 1.72407260521714045253816
3.142712159956285944417687 0.006272959737715218600517808 1.763560799781429100363539
3.135424319912570645385586 -0.01666666666666666296592325 1.770848639825143289172615
3.142712159956285056239267 -0.02706037359561811253549912 1.763560799781429100363539
3.120848639825143155945852 -0.01248469350818943481018497 1.785424319912571444746163
3.113560799781429189181381 -0.03124234675409461731154792 1.79271215995628563355524
3.113560799781429189181381 0.006272959737715744221731029 1.79271215995628563355524
3.128136479868850017282966 -0.03542431991257184720200968 1.763560799781421994936181
3.113560799781422083754023 -0.03542431991257184720200968 1.778136479868850594598939
3.113560799781422083754023 0.03542431991257184720200968 1.778136479868850594598939
3.128136479868850461372176 0.03542431991257184026311577 1.763560799781422439025391
3.191926665677444763247195 0.0006265809205113400661910084 1.758699915243067124492882
3.183853331354889348858705 -0.01666666666666666990481716 1.76723995613770012980126
3.191926665677444763247195 -0.03270675241282200440551264 1.758699915243067124492882
3.174474504731931823187097 -0.00209098657924700927213113 1.77656549131117924567036
3.173169012431530155993187 0.0005199980215556771964702243 1.777350985590024912141871
3.175779997032331269934957 -0.03385333135488900746512542 1.759166621815142272922117
3.165881172387820630120814 -0.01927765126746935203660982 1.770063145546306282440696
3.159113330365664218390975 -0.03385333135488900746512542 1.761204316944902759090041
3.166401170409374188352558 0.01927765126746935203660982 1.768492156988621388791216
3.157807838065262551197065 0.03542431991258033346925416 1.761989811223748425561553
3.175779997032331269934957 0.03385333135488900746512542 1.759166621815142272922117
3.157287840043709881143741 0.006272959737723714408741404 1.763560799781433319211033
3.164575680087419407016114 -0.01248469350818995696195124 1.770848639825151948912207
3.157287840043709437054531 -0.03124234675410363440417605 1.763560799781433319211033
3.200534443493824987569951 -0.0493854244273810305543293 1.750336632101747724732377
3.200336632101747902368061 -0.0493854244273810305543293 1.750389923551225468401071
3.200336632101747458278851 0.04938542442738101667654149 1.750389923551225246356466
3.200534443493824987569951 0.04938542442738101667654149 1.750336632101747280643167
3.200702910570464965189785 -0.04898980164322605523885557 1.750307287786309728971901
3.200812386964696720781376 -0.01627104388251169805879037 1.750614575572619013854592
3.200702910570464965189785 0.01644771387820265912127482 1.750307287786309284882691
3.200614575572619191490276 -0.01656008376771101256452745 1.750667867022096979567891
3.200307287786309906607585 0.01615867399300334114609079 1.75041387068526521630929
3.200307287786309906607585 -0.04927884152842536280569874 1.750413870685265438353895
3.641902682659298395861924 0.001416095955787182933405255 1.759513413296487804871049
3.6338053653185973246309 -0.0166666666666666525575824 1.767610730637191984726542
3.641902682659298395861924 -0.03191723737754614820261168 1.759513413296487804871049
3.625302532688629231216737 -0.0003389985932688941577817232 1.77564153128189827768324
3.624897017399362653122807 0.000472031985264736910629102 1.77557501458590061282905
3.624125786195622200835942 -0.02343440740551331127883294 1.763754828282507514103372
3.63560697390574683041109 -0.03380536531859804072475129 1.759041381311226448502794
3.621918662319206561051033 -0.007106739332115552879032272 1.772257660912475163428326
3.621918662319205672872613 0.007106739332115594512395695 1.772257660912474941383721
3.624125786195622200835942 0.02343440740551334250385551 1.763754828282507514103372
3.63560697390574683041109 0.03380536531859805460253909 1.759041381311226448502794
3.625927394782771262526921 -0.0188871262606861642363576 1.755185478956542199924229
3.620741915826198642491818 0.00407524915956245046416706 1.760370957913084399848458
3.625927394782771262526921 0.02703762457981104955218044 1.755185478956542199924229
3.618534791949783002706909 0.0003389985932689351948339518 1.768873790543051827128807
3.621513147029939094778683 -0.006295708753581921376940578 1.772191144216477498574136
3.692116232419734522807175 0.002697394518395273416144775 1.760581162098660890080737
3.684232464839468867978667 -0.01666666666666667337426411 1.768464929678931873979764
3.692116232419734522807175 -0.03063593881493806292404258 1.760581162098660890080737
3.675663115513504664022548 -0.0004720319852628309916300897 1.77613514749876633125325
3.674977533767805226716519 0.000899131506135308856617061 1.77592159773832980462771
3.676348697259200548614899 -0.03423246483946865148517702 1.760581162098663110526786
3.666880216427103267307075 -0.01803783015806480899412279 1.767824280397626512950637
3.659682030592533497070917 -0.03423246483946864454628312 1.760154062577794498167805
3.667779347933235900569571 0.01803783015806479858578193 1.768251379918497789844878
3.658996448846834059764888 0.03380536531859615334560942 1.759940512817357971542265
3.676348697259200548614899 0.03423246483946863760738921 1.760581162098663110526786
3.658097317340701870591602 0.001416095955785281025954281 1.759513413296486916692629
3.666194634681403830001045 -0.01572260269614421043793406 1.767610730637190430414307
3.658097317340701870591602 -0.03286130134807369734817328 1.759513413296486916692629
3.743413322097361106699509 0.01047993258413798187134169 1.767066610486776712107826
3.736826644194722213399018 -0.01666666666666666990481716 1.773653288389430038307637
3.743413322097361106699509 -0.02285340074919534752995176 1.767066610486776490063221
3.728043745108323037129594 -0.0008991315061328905436713321 1.778942876614455048667196
3.725847523924561421893031 0.003493310861389305709001629 1.777645786936826954871549
3.73023996629207488240354 -0.03682664419472264638599768 1.767066610486782041178344
3.717963756344295322975313 -0.02105910903418886995219772 1.769762019356557303240152
3.713573299625407830859558 -0.03682664419472265332489158 1.764472431131537621951111
3.721457067205674817955696 0.02105910903418885607440991 1.772356198711807495627113
3.711377078441646659712205 0.03423246483946620899452284 1.763175341453909528155464
3.73023996629207488240354 0.03682664419472263944710377 1.767066610486782041178344
3.707883767580267164731822 0.002697394518392843502235801 1.760581162098659557813107
3.71576753516053415182796 -0.01486840365440670642949161 1.768464929678929209444505
3.707883767580267164731822 -0.03243420182720625766226163 1.760581162098659335768502
3.783046457494291914258611 -0.01036686460306623404348247 1.793413322097358264528566
3.776403245601108071838325 0.009793112924984137546147167 1.786826644194716928737421
3.783046457494291914258611 0.02995309045303452127884114 1.793413322097358264528566
3.769816567698466514002575 -0.03682664419471704669861722 1.780239966292066045028264
3.769816567698466514002575 0.03682664419471703975972332 1.780239966292066045028264
3.75658667790264155783575 0.01047993258413237871451429 1.767066610486773825527962
3.76317335580528267158229 -0.00968004494391800675290316 1.773653288389424709237119
3.75658667790264155783575 -0.02984002247196837487308585 1.767066610486773825527962
3.092911268464431095992495 0.007467610786592126029259653 1.814556342322160675806231
3.085822536928861659077938 -0.01666666666666662827145373 1.821645073857726782051714
3.092911268464430651903285 -0.02586572254674120163731033 1.814556342322160675806231
3.071645073857720120713566 -0.01168825947561759337478549 1.835822536928862547256358
3.064556342322146242906911 -0.03084412973781342631740543 1.842911268464431095992495
3.064556342322146242906911 0.007467610786578206608088415 1.8429112684644313180371
3.078733805393282896289975 -0.03582253692886246121407368 1.81455634232214757517454
3.064556342322140469747183 -0.03582253692886246121407368 1.828733805393282896289975
3.064556342322140913836392 0.0358225369288625028474371 1.82873380539328356242379
3.078733805393282896289975 0.0358225369288625028474371 1.81455634232214801926375
3.127301543905861791472489 0.0004211146532235951088149473 1.823119570747361972706813
3.12646660794284869666626 -0.002090986579249455232232258 1.824375621363598654056659
3.124176512855451282035801 -0.00248920359554403829160929 1.826665716450995180508698
3.122721353731067850389991 0.0004211146532235882783412606 1.827699760922155691744706
3.118343831936123855541609 -0.01917876789913972035428458 1.816252845356874701110428
3.111890927855418098602058 -0.03542431991258278983769614 1.807708954696929604111233
3.115632622195506407081211 -0.01957698491543429647476771 1.820611029386581591893446
3.10896500531316632987 -0.03375444798655692635325209 1.811454208908697349755812
3.11605373684872732908957 0.0195769849154342895358738 1.818542940444271227562467
3.10750984618878201004577 0.03582253692887735901928536 1.812488253379857638947215
3.12001370386214205154829 0.01917876789913971341539067 1.815831730703653335012859
3.11105599189240411561741 0.03375444798655692635325209 1.80896500531316584137187
3.120848639825155146354518 -0.0166666666666666664353702 1.814575680087416653663013
3.113560799781435406430319 -0.02706037359560664601332292 1.807287840043708238013664
3.113560799781435406430319 0.006272959737726685122694015 1.807287840043708238013664
3.107088731535561088037412 0.007467610786606987405278346 1.814556342322168447367403
3.114177463071122531346191 -0.01168825947560371558697767 1.821645073857741881084849
3.107088731535560643948202 -0.03084412973781441164033978 1.814556342322168003278193
3.791946711667755209873576 0.001752198711762751335077604 1.809805487044007010766222
3.783893423335510153293626 -0.01666666666666666990481716 1.817822811023636742078224
3.791946711667754321695156 -0.03158113462157058348722671 1.809805487044007010766222
3.775404572602846897666495 -0.0003110347986603440939915033 1.825715607401507734053325
3.774969010202427810440895 0.0005600900021777542462167454 1.825591079799748772671819
3.77854448870757764211703 -0.02049098218085062053650525 1.815314598911752286269916
3.788509934796913558585629 -0.03389342333551109698319692 1.809209432689214525069588
3.773492414845755149599427 -0.004135350312844295050940246 1.823803449644415763941652
3.773492414845755149599427 0.004135350312844284642599391 1.823803449644415763941652
3.77854448870757764211703 0.02049098218085061012816439 1.815314598911752286269916
3.788509934796913558585629 0.03389342333551108310540911 1.809209432689214525069588
3.783161000168980159230614 -0.01013777925368871193900766 1.806701220577330069261279
3.776632330950485005871542 0.009793112924984142750317595 1.813402441154660316158242
3.783161000168981047409034 0.02972400510365700437853675 1.806701220577330069261279
3.771580257088663401532358 0.0003110347986603340109112992 1.821891291887323571785373
3.773056852445336062373826 -0.003264225512006196927572432 1.823678922042656802560145
3.842713755475125836369443 0.006282532850736157262194759 1.813568777375610618918245
3.835427510950250695742625 -0.01666666666666668031315801 1.82085502190049375315084
3.842713755475125836369443 -0.02705080048259717387382217 1.813568777375610618918245
3.826790174212979067647211 -0.0006080068078771439996077497 1.827398181020856160472476
3.825439082000581692000196 0.002094177616917439459925943 1.826655095616336099695332
3.828103840082185627125 -0.03542751095025081092826369 1.813531351032428684533215
3.817409752071186268551628 -0.01936885109146127548207517 1.818613813233856513207343
3.811437173415518575581018 -0.03542751095025081786715759 1.812033227770311727411467
3.819466503344913554940376 0.01936885109146123384871174 1.820074510152791313899456
3.810086081203121199934003 0.03394134014121043263489952 1.811290142365791666634323
3.828103840082185627125 0.03542751095025079011158198 1.81353135103242846248861
3.808029329929393913545255 0.001800115517462101081408443 1.809829445446856865942209
3.816058659858788892904613 -0.01547455795708169157265388 1.817870727829336452430198
3.808029329929393913545255 -0.03274923143162546818052405 1.809829445446856865942209
3.886786321566916946324 -0.005927433908206833704235272 1.842713755475123615923394
3.879322527570773448957198 0.0128334103753736002151431 1.835427510950247143028946
3.886786321566916946324 0.0315942546589540462775858 1.842713755475123393878789
3.87203628304589653197354 -0.03542751095024711249781291 1.8281412664253662292424
3.87203628304589742015196 0.0354275109502470986200251 1.8281412664253662292424
3.8572862445248770058015 0.00628253285073246143382919 1.8135687773756086205168
3.864572489049753478695948 -0.01247831143284798549597525 1.820855021900489534303347
3.8572862445248770058015 -0.0312391557164284142111832 1.813568777375608842561405
3.07781793008722992510684 0.0006574529833861635086389441 1.872839522896156516651445
3.076902054781154305374002 -0.002489203595536564669193913 1.874412851185617956417673
3.06798157263343629352903 -0.01535176069989852010166942 1.883990786316719567849987
3.059976965791793901416895 -0.03267588034995139167904199 1.891995393158359739516072
3.059976965791793901416895 0.001972358950154404384769169 1.891995393158359739516072
3.068897447939510136905028 -0.01981332324558943841497083 1.866408244343974232037908
3.062724591710008326117531 -0.03582253692886984419718743 1.857746184518947574204617
3.059976965791792569149266 -0.03399078631671959005444705 1.875986179475075843470222
3.059976965791792569149266 0.03399078631671954148218973 1.875986179475075843470222
3.070729198551652494586506 0.01981332324558934127045617 1.865750791360591742673591
3.061808716403933150473904 0.03399078631671954148218973 1.859319512808409458060055
3.071645073857727670230133 -0.01666666666666671153818058 1.864177463071130080862758
3.064556342322150683799009 -0.02586572254674782481154161 1.8570887315355650848403
3.064556342322150683799009 0.007467610786585505457113587 1.8570887315355650848403
3.891880297077433770169819 0.001665157171416506431960158 1.85978486009398324974029
3.88376059415486674097906 -0.01666666666666664561868849 1.867712875663141591786598
3.891880297077433770169819 -0.03166817616191683337767415 1.85978486009398324974029
3.875328884476221702470866 -0.000196752690623814039750164 1.875525637166845394077086
3.875016877720142360885802 0.0004272608215335121700437226 1.875410383101390410232057
3.880951817601151709880014 -0.01845096348280259729301989 1.866201779080132183707974
3.889963668931787132976297 -0.03376059415486680481688353 1.85916591191904179147798
3.874436736068153308565343 -0.001981049506759763843832811 1.874633488758777222216168
3.874436736068152420386923 0.001981049506759839737984885 1.874633488758777222216168
3.880951817601151709880014 0.01845096348280264586527721 1.866201779080132183707974
3.889963668931787132976297 0.03376059415486682563356524 1.85916591191904179147798
3.887154892378072545966461 -0.005190292285895514723392807 1.857654815336032161354751
3.88005966919308420415291 0.01283341037537364531795347 1.86530963067206423389166
3.887154892378072545966461 0.03085711303664277066483024 1.857654815336032161354751
3.873544587660084914659819 0.0001967526906238896357466406 1.873741340350709494444459
3.874124729312074411069489 -0.001357035994602437661143979 1.874518234693322682460348
3.943449379449457836699366 0.01069627669672461658945117 1.867246897247268222486127
3.93689875889891371940621 -0.01666666666666666296592325 1.873797517797819001117432
3.943449379449457836699366 -0.02263705663660871281184228 1.867246897247268222486127
3.928224504425687602093831 -0.0006818422797856560097634615 1.87890634670547296281029
3.926100870503004713896189 0.00356542556557974199896166 1.877464555062575701782634
3.93007402551248929967187 -0.03689875889891307270129772 1.866972784411394581383092
3.918108458309564667843006 -0.02091393451203206813038271 1.869409248764291264777171
3.913407358845822248127888 -0.03689875889891307270129772 1.864026307020763661981277
3.921399771039262738270281 0.02091393451203206466093576 1.872081613319048543075951
3.911283724923139804019456 0.0340151756131189947351956 1.862584515377866622998226
3.93007402551248929967187 0.03689875889891307270129772 1.866972784411394359338487
3.907992412193440845413761 0.001919738629668675533590516 1.859912150823109344699446
3.915984824386881335556154 -0.0154287703167836510315114 1.86796745712139422579412
3.907992412193440845413761 -0.03277727926323598106606028 1.859912150823109344699446
3.982753102752719875923049 -0.01069627669673487747881158 1.893449379449454683665977
3.976202482202177979075941 0.009535815535507889337263343 1.8868987588989096781944
3.982753102752719875923049 0.02976790776775065094916783 1.893449379449454905710581
3.969651861651632973604364 -0.03689875889890942284310427 1.88034813834836045387533
3.969651861651632973604364 0.03689875889890942978199817 1.88034813834836045387533
3.95655062055054607128568 0.01069627669672097713959857 1.867246897247266446129288
3.963101241101091076757257 -0.009535815535521779268135489 1.873797517797815226359148
3.95655062055054607128568 -0.02976790776776454608421041 1.867246897247266446129288
3.075876154144189911221474 0.0004374023216047044941220956 1.924561248177414585214251
3.075766128813298028177314 -0.0006574529833874429756226943 1.925108675829910964694136
3.067541471309874090422909 -0.01579186202346051157152651 1.933770735654938066616637
3.059426839137341147534244 -0.03289593101173188260943903 1.941885367827469011103858
3.059426839137341147534244 0.001312206964810854695896447 1.941885367827469011103858
3.067651496640764641199439 -0.01776152197165880783358283 1.916994043657377577716261
3.059756915130012799863835 -0.03399078631672076966641072 1.908442009163241692704105
3.059426839137340259355824 -0.03377073565493803053438882 1.925656103482404901683367
3.059426839137340259355824 0.03377073565493803053438882 1.925656103482404457594157
3.067871547302546630930919 0.01776152197165881130302978 1.91655664133577507968198
3.059646889799121360908885 0.03377073565493803053438882 1.908989436815737850139385
3.06798157263343762579666 -0.01666666666666666296592325 1.916009213683279144291305
3.059976965791794789595315 -0.03136097438317769076077113 1.908004606841639416714429
3.059976965791794789595315 0.001972358950155638640522326 1.908004606841639416714429
3.992497506290194397848836 0.004985037741165732408377131 1.91248753145097105665684
3.984995012580389683876092 -0.01666666666666668378260496 1.919990025160777769031029
3.992497506290194397848836 -0.0283482955921676056665337 1.91248753145097105665684
3.976448414325362001875419 -0.000426529843389129512121194 1.926874944168751158102282
3.97540430978013903384749 0.001661679247056343589408756 1.926257369466917390710137
3.978816034608490870283504 -0.02189377147930556682942083 1.915714793507403701511294
3.988932080724615136801958 -0.0349950125803897074683313 1.910825852203916319638211
3.973834861919042005240499 -0.005653634656028016028384009 1.924261391762431827601176
3.973834861919042005240499 0.005653634656027983935999703 1.924261391762431827601176
3.978816034608490870283504 0.02189377147930554948218607 1.915714793507403701511294
3.988932080724615136801958 0.03499501258038968665164958 1.910825852203916541682815
3.98275310275271721138779 -0.0106962766967413167723544 1.906550620550542252118476
3.976202482202171317737793 0.009535815535507873724752059 1.913101241101084371010188
3.98275310275271721138779 0.02976790776775706942602895 1.906550620550542252118476
3.971221309512723340873208 0.0004265298433890970944762366 1.921647839356112275055466
3.97279075737381948130178 -0.003565425565582544011056232 1.923643817060598060209031
4.03751246854902490213135 -0.004985037741169325020695879 1.94249750629019501957373
4.030009974839220632247816 0.01334330817255332396475964 1.934995012580389417422566
4.03751246854902490213135 0.03167165408627598682800297 1.94249750629019501957373
4.022507481129414586007442 -0.03499501258038932582916658 1.927492518870582927092983
4.022507481129415474185862 0.03499501258038931889027268 1.927492518870582927092983
4.007502493709805158061954 0.00498503774116535770810632 1.91248753145097105665684
4.015004987419610316123908 -0.01334330817255730342041353 1.919990025160777324941819
4.007502493709805158061954 -0.03167165408627995587531601 1.912487531450970834612235