# geometry NO_DATA 676
#  x  y  z
3.083919246096352484443059 0.01549484114062785189425142 1.732161507807294498206829
3.091959623048176286630451 0.03274742057031392733490449 1.740201884759118300394221
3.091959623048176286630451 -0.001757738289058214872784269 1.740201884759118300394221
3.065824871879084589920694 -0.03101015374509741295838694 1.746835025624182691217356
3.062659897503267281138051 -0.004006769163398278717214129 1.743670051248365604479318
3.065824871879084589920694 0.02299661541830085725868216 1.746835025624182691217356
3.083034144494487982512965 -0.01764734290992244283846624 1.732448231731468668570528
3.091564859567939471673981 -0.03391924609635274534547023 1.740393034041901154651555
3.077572829155462486028227 -0.02739814806193550250634772 1.73790954707049483118908
3.075766826313881097121339 -0.04367005124836580154390475 1.746440262143946542394701
3.077572829155462486028227 0.02739814806193548862855991 1.737909547070495053233685
3.075766826313881097121339 0.04367005124836580154390475 1.746440262143946542394701
3.083034144494487982512965 0.01764734290992241855233758 1.732448231731468890615133
3.0915648595679403598524 0.03391924609635273146768242 1.740393034041901154651555
3.075388531022900551192834 -0.000394763480236376288270983 1.724216705496862234170408
3.074898192901272864219209 0.0005859127630193862370372448 1.724312280138253550276772
3.069436877562246923645262 0.01033671791503245479537654 1.729773595477279712895324
3.064465900344848670044939 -0.0003947634802363696746377308 1.735139336174913893273697
3.134080404968740740656585 0.01517252339585053663717495 1.731839190062516964374595
3.142040202484370325919372 0.03258626169792526450219583 1.739798987578146327592776
3.142040202484370325919372 -0.002241214906224186023675493 1.739798987578146327592776
3.132828000006507185304372 -0.01799965106509412993140984 1.732080928371100059237619
3.141454289721350878750172 -0.03408040496874138736149717 1.739960146450535205531196
3.124121130855470163112386 -0.03391924609635273840657632 1.740201884759118300394221
3.124121130855470163112386 0.03391924609635273146768242 1.740201884759118300394221
3.132828000006507185304372 0.01799965106509412646196289 1.732080928371100059237619
3.141454289721350878750172 0.03408040496874138736149717 1.739960146450535205531196
3.125454115253897047210785 -0.0005859127630194069452987393 1.723959971983081818081018
3.124787623054683383116981 0.0007470716354080580686239377 1.724040551419276257050228
3.116080753903646360924995 0.0154948411406278605678688 1.732161507807294498206829
3.108040376951823446916023 0.0327474205703139342737984 1.740201884759118300394221
3.108040376951823446916023 -0.00175773828905821010229471 1.740201884759118300394221
3.184094727926393364469959 0.01514387748054746296588746 1.731810544147214026011738
3.192047363963196993097426 0.03257193874027372593182861 1.739763180184017432594601
3.192047363963196549008217 -0.00228418377917879739796847 1.739763180184017432594601
3.182593423176751645797822 -0.01817513289513430357891011 1.731832028583691229783881
3.191300292327788667989807 -0.0340947279263929259318644 1.739777503141669123820634
3.173879392546887778792097 -0.03408040496874138042260327 1.739798987578146327592776
3.173879392546887778792097 0.03408040496874138042260327 1.739798987578146327592776
3.182593423176751201708612 0.01817513289513430357891011 1.731832028583691229783881
3.191300292327788667989807 0.0340947279263929328707583 1.739777503141669123820634
3.175387858775355898188764 -0.0007470716354080449497776506 1.723865069589236131974985
3.174633625661122060535035 0.0007613945930595897000972561 1.723872231068061866565699
3.165919595031258637618521 0.01517252339585054184134538 1.731839190062516964374595
3.157959797515629496444944 0.03258626169792525062440802 1.739798987578146327592776
3.157959797515629052355735 -0.002241214906224169543802471 1.739798987578146327592776
3.233990193759842757259548 0.01535294581364769761488986 1.732019612480314219027377
3.241995096879921156585169 0.03267647290682384325632981 1.740024515600392840397603
3.241995096879921156585169 -0.001970581279528448460230949 1.740024515600392840397603
3.232519671656998827558027 -0.01808492168623575258035174 1.731862811230489018754497
3.241233702286861806385332 -0.0339901937598428155462571 1.739919981433842632867481
3.223857908110410619428876 -0.0340947279263929398096522 1.739763180184017432594601
3.223857908110411063518086 0.0340947279263929398096522 1.739763180184017432594601
3.232519671656998827558027 0.01808492168623575258035174 1.731862811230489018754497
3.241233702286861362296122 0.0339901937598428086073632 1.739919981433842632867481
3.225276163129980222521453 -0.0007613945930596075894331021 1.723962442276960604914393
3.22456703562019564301977 0.0006568604265094813744740865 1.723910175193685612171635
3.215905272073607434890619 0.01514387748054745949644051 1.731810544147213803967134
3.207952636036804250352361 0.03257193874027373287072251 1.739763180184017432594601
3.207952636036804250352361 -0.00228418377917881474520323 1.739763180184017432594601
3.283861803744393625947851 0.01560972584454504465123481 1.7322763925112119043348
3.291930901872197168245293 0.0328048629222725263154814 1.740345490639014558453823
3.291930901872197168245293 -0.001585411233182433977245696 1.740345490639014780498428
3.282612277899099595401822 -0.017851997504236948727252 1.732083807488038917909989
3.291274041445687803530973 -0.03386180374439415330378722 1.740217100623566270911624
3.274014709360236086155282 -0.03399019375984280166846929 1.740024515600393062442208
3.274014709360236086155282 0.03399019375984280166846929 1.740024515600393062442208
3.282612277899100039491032 0.01785199750423694525780505 1.732083807488038695865384
3.291274041445687803530973 0.03386180374439414636489332 1.740217100623566048867019
3.275200040197805861907909 -0.0006568604265094715082343169 1.724143099375684551333165
3.274607374779020751986991 0.0005284704110608076394611787 1.724078904367960074495159
3.266009806240156798651242 0.01535294581364769761488986 1.732019612480314663116587
3.258004903120078399325621 0.032676472906823829378542 1.740024515600393062442208
3.258004903120078399325621 -0.001970581279528434582443142 1.740024515600392840397603
3.333750879545835932304954 0.0158334043878299544905186 1.732499155981412464200275
3.341875439772917566472188 0.03291761726699914819560533 1.740624631281578515995534
3.341875439772917566472188 -0.00125080849133922793886553 1.740624631281578515995534
3.332750551102919178703132 -0.01761268329023000719923964 1.732333004890416638943407
3.341348119641782687949672 -0.03375087954583586014045693 1.740513942289862114876087
3.324208444663334649504804 -0.03386180374439414636489332 1.740346640918940313014218
3.324208444663334649504804 0.03386180374439413942599941 1.740346640918940313014218
3.332750551102919178703132 0.01761268329022998985200488 1.732333004890416860988012
3.341348119641782687949672 0.03375087954583584626266912 1.740513942289862114876087
3.325153311006972423058414 -0.0005284704110608236856533315 1.7243182185819672103122
3.324680302695190992068319 0.0004175462125025101393221982 1.724262756482688008219384
3.316138196255606018780782 0.01560972584454503771234091 1.7322763925112119043348
3.308069098127802920572549 0.0328048629222725263154814 1.740345490639014558453823
3.308069098127802920572549 -0.001585411233182437446692647 1.740345490639014780498428
3.377744890681203315807579 0.004838703827406845049685646 1.72709381314620369352042
3.3800014732111565152195 -0.0003255387674995513795812851 1.729675934443656970529446
3.376367393994494925379968 -0.006942619665822415131462009 1.73817203716074009101078
3.370476732247880580217725 -0.02844799015989593962694393 1.744086018580369934483087
3.370476732247880580217725 0.01456275082825114752793638 1.744086018580369934483087
3.377375178646618181232952 -0.005578127896577096851704614 1.727049639879117970409084
3.368879075929534394617804 -0.0219192557957442538119075 1.735129111456782613487348
3.365614708747458383442108 -0.03817203716074023256421555 1.743669387440951457080018
3.368879075929534394617804 0.02191925579574419830075627 1.735129111456782613487348
3.365614708747458383442108 0.03817203716074019093085212 1.743669387440951457080018
3.377375178646618181232952 0.00557812789657703353429774 1.727049639879117970409084
3.375118596116664537731822 -0.0004138853016707012355893114 1.724467518581664693400057
3.374748884082079403157195 0.0003255387674994867069216964 1.724423345314578970288721
3.366252781364996060631256 0.01583340438782995102107165 1.732502816892244057456196
3.358126390682497408590734 0.03291395635616730513950401 1.740626461736994423645797
3.358126390682497408590734 -0.001247147580507389436413335 1.740626461736994423645797
2.984214501799268948190047 0.01484236588398787221043662 1.781540014476058253478641
2.992107250899634696139628 0.03239020101659013245454233 1.789401781651020151286957
2.992107250899634696139628 -0.002705469248614377625328231 1.789401781651020151286957
2.989926292370886251603679 -0.002078802241616087634334953 1.792005094612502569262347
2.981955504266688983250333 0.01526472031672267831714507 1.784010189225005316160377
2.989926292370886251603679 0.03260824287506145641168942 1.792005094612502569262347
2.983360299213609678758985 -0.01781701749372029131013306 1.782479130747673945478482
2.991828223727502233941777 -0.03421450179926893014892286 1.79003490487022665078598
2.982581287034805406221949 -0.01761270491945680916057171 1.783258142926477773926308
2.990348238373726097449889 -0.03401018922500544799936151 1.791726067440370329109101
2.982581287034805406221949 0.01761270491945678140499609 1.783258142926477773926308
2.99034823837372565336068 0.0340101892250054341215737 1.791726067440370329109101
2.983360299213609678758985 0.01781701749372026355455745 1.782479130747673723433877
2.991828223727502233941777 0.03421450179926891627113505 1.79003490487022709487519
2.975746577285376393007255 -0.0002691823611180449438151641 1.773984240353505104081933
2.975171401871849585774044 0.0008811684659355657278992369 1.774290233405914074538146
2.974392389693045757326217 0.0006768558916720835783378818 1.775069245584717680941367
2.974188552927768292022392 -0.0002691823611180432633017967 1.775542264711112760977585
3.043670051248364760709819 -0.004006769163398275247767177 1.762659897503267902862945
3.046835025624182069492463 0.02299661541830085725868216 1.765824871879085211645588
3.046835025624182069492463 -0.03101015374509741295838694 1.765824871879085211645588
3.037118016253094854306482 -0.02792583527353524955327835 1.776781298338062420327788
3.045912574932346572609276 -0.04367005124836580154390475 1.775239139102281704651887
3.023616323962245111545144 -0.03425578402516944731548421 1.789370840237572757303042
3.023616323962245999723564 0.03425578402516944731548421 1.789370840237572757303042
3.037118016253094854306482 0.02792583527353524955327835 1.776781298338062420327788
3.045912574932346572609276 0.04367005124836579460501085 1.775239139102281704651887
3.034875492569113930585445 -0.0009224506918361155289459719 1.764202056739049062628055
3.029245908265679521065294 0.01033671791503246693844087 1.7689091903506470870866
3.015744215974829778303956 0.01484236588398788261877748 1.781498732250157424061854
3.007872107987415333241188 0.03243148324249066349889148 1.789381140538069736578564
3.007872107987415333241188 -0.002746751474514899128698264 1.789381140538069736578564
3.065824871879085478099114 -0.0436700512483657182771779 1.759494923127451260214116
3.059494923127451304623037 -0.0436700512483657182771779 1.765824871879085655734798
3.059494923127450860533827 0.043670051248365711338284 1.765824871879085211645588
3.065824871879084589920694 0.043670051248365711338284 1.759494923127451260214116
3.065824871879084589920694 -0.03101015374509732275276619 1.753164974375817308782644
3.06265989750326816931647 -0.004006769163398274380405439 1.756329948751634173476077
3.065824871879084589920694 0.02299661541830077399195531 1.753164974375817308782644
3.056329948751633995840393 -0.004006769163398275247767177 1.762659897503268568996759
3.05316497437581668705775 0.02299661541830077399195531 1.765824871879085211645588
3.05316497437581668705775 -0.03101015374509732969166009 1.765824871879085211645588
3.388203109637558441136207 0.006927114058216147021718179 1.773593780724882940091902
3.394101554818779398203787 0.02846355702910798382565538 1.779492225906103453070273
3.394101554818779398203787 -0.01460932891267566549609036 1.779492225906103453070273
3.382296911652534987524632 -0.03820310963755850497403088 1.767695335543661983024322
3.382296911652534099346212 0.03820310963755847721845527 1.767695335543661983024322
3.376398466471313586367842 -0.01666666666666669072149887 1.761796890362441248001346
3.370492268486290132756267 -0.01873951002826389558575393 1.755898445181220512978371
3.370492268486290132756267 0.014593823305069435550263 1.755898445181220512978371
3.434474234295000094618899 0.01438486474333338163700269 1.781051531410000166033569
3.442237117147499692038082 0.03219243237166670434934446 1.788814414262499763452752
3.442237117147499692038082 -0.003422702884999943243743425 1.788814414262499763452752
3.426599119357828460152859 -0.02267734393255857808235909 1.775458218396162024532714
3.437367340843274554629261 -0.03447423429499999608660588 1.785085538919941372526523
3.41769533554366233829569 -0.03820310963755858130186382 1.779492225906103231025668
3.41769533554366233829569 0.03820310963755854660739431 1.779492225906103897159483
3.426599119357828904242069 0.02267734393255854685733652 1.775458218396162246577319
3.437367340843274554629261 0.03447423429499998914771197 1.785085538919941372526523
3.423706012809553556053288 -0.00486977630422525190057037 1.771424210886220595995155
3.420700674176607947174489 0.001140900961666628955076819 1.769559773214941511554343
3.411796890362441381228109 0.006927114058216140082824275 1.773593780724883162136507
3.405898445181220868249738 0.02846355702910805321459442 1.779492225906103897159483
3.405898445181220868249738 -0.01460932891267574702809373 1.779492225906103453070273
3.483863451202791061689368 0.01561041672524474122063509 1.782275090493163682836553
3.491931725601395530844684 0.03280720126136979497566415 1.790345357790515290474787
3.491931725601395530844684 -0.001586367810880317738564393 1.790345357790515290474787
3.481891168114858547966151 -0.01833768549779169962365977 1.781361050245400479141722
3.49079495192902555800174 -0.03386345120279173059874012 1.78973670908885651442688
3.473292775846795965577485 -0.03447423429499997526992416 1.788818541551796315047795
3.473292775846795965577485 0.03447423429499996139213636 1.788818541551796315047795
3.481891168114858547966151 0.01833768549779168921531891 1.781361050245400479141722
3.49079495192902555800174 0.03386345120279171672095231 1.78973670908885651442688
3.474959667388623607564568 -0.001140900961666642832864627 1.773899431649708091640605
3.474124157973061066684295 0.0005301178694583871028184197 1.773594040103603663993681
3.465525765704999372474049 0.01438486474333338163700269 1.781051531409999499899754
3.457762882852499330965657 0.03219243237166668353266274 1.788814414262499541408147
3.457762882852499330965657 -0.003422702884999919391295631 1.788814414262499541408147
3.526826257271983511287772 0.003005109247957825878427851 1.776178851975972250443192
3.528166960571959442916068 -0.0003237026480065307437739008 1.777843257923954256582988
3.522705965676786732387882 -0.01059828714234070656807774 1.786338442581290708588426
3.51590426748163764614219 -0.03027006305696518934089667 1.793169221290645154454069
3.51590426748163764614219 0.009073488772283757122782966 1.793169221290645376498674
3.526403334288057411782802 -0.003850955215810491095301815 1.776079631640052003405117
3.517908149630721403866573 -0.02019391923447061421015292 1.784046691326677924749333
3.512870077719474792843357 -0.03633844258129113879984828 1.792641096319934179703637
3.517908149630721403866573 0.02019391923447063502683463 1.784046691326678146793938
3.512870077719474792843357 0.03633844258129113879984828 1.792641096319934401748242
3.526403334288057411782802 0.003850955215810527090813942 1.776079631640052447494327
3.525062630988081480154506 -0.0005221433198461345815202805 1.774415225692070219309926
3.524639708004155380649536 0.0003237026480065668477062446 1.774316005356150416361061
3.516144523346819372733307 0.01561041672524475162897595 1.782283065042776115660672
3.508072261673409464322049 0.03279922671175756337946794 1.790349345065321617909149
3.508072261673409464322049 -0.001578393261268072264580375 1.790349345065321617909149
2.987971371818995969249499 -0.004434353817204594178091881 1.842405725636200752859395
2.980377097455197077380262 0.01371043078853027494257155 1.834811451272401416900948
2.987971371818995969249499 0.03185521539426514059378803 1.842405725636200752859395
2.989902199325984444300275 -0.0340423294438072995826694 1.823936505834288901439777
2.981530780198089036758802 -0.01885378071620882889369852 1.833008898137156172936102
2.988740493647590756864929 -0.03481145127240153902548059 1.841696729525726716758527
2.981530780198089036758802 0.01885378071620882889369852 1.833008898137156394980707
2.988740493647590756864929 0.03481145127240153208658668 1.841696729525726938803132
2.989902199325984444300275 0.0340423294438072995826694 1.823936505834289123484382
2.989910222261486172357081 -0.002110942460417937916600239 1.807978835278096108041268
2.981923364047887936578718 0.01526472031672269219493288 1.81595767055619239371822
2.989910222261486172357081 0.03264038309386332187278512 1.807978835278096108041268
2.973551944919992084948035 0.001478117939068200083208016 1.825030062859059665214545
2.973167384005695357274135 -0.0007089961104739582551520494 1.826123619883830873078523
3.536377189107783980404065 0.01057895511776388471070209 1.827245621784430618106398
3.543188594553891679339586 0.03028947755888194287576809 1.834057027230538317041919
3.543188594553891679339586 -0.009131567323354185597428234 1.834057027230538317041919
3.529556117649387481094436 -0.03637718910778472980460663 1.820434216338322919170878
3.529556117649387481094436 0.03637718910778473674350053 1.820434216338322919170878
3.522744712203279782158916 -0.0166666666666666525575824 1.813622810892215220235357
3.515923640744884171027707 -0.02422109803455598300847562 1.806811405446107521299837
3.515923640744884171027707 0.009112235298777349862264785 1.806811405446107521299837
3.584070417412340781027069 0.01519249850865037922142964 1.831859165175316883633627
3.592035208706170212877851 0.0325962492543251658450032 1.839823956469146537529014
3.592035208706170212877851 -0.002211252237024415208399564 1.839823956469146537529014
3.579136091711160094774868 -0.02044760652012613671990593 1.828399007632152128977054
3.58899135293171855920491 -0.0340704174123414652020081 1.837517184773703293743097
3.570434216338322475081668 -0.0363771891077846742934554 1.834057027230538539086524
3.570434216338322475081668 0.0363771891077846812323493 1.834057027230538317041919
3.579136091711160094774868 0.02044760652012614365879983 1.828399007632152128977054
3.58899135293171855920491 0.03407041741234145826311419 1.837517184773703071698492
3.574215156191782316597028 -0.003043855774451342290076727 1.82274098803376594091219
3.572324686265052839928558 0.0007370840790081328733687749 1.821587602186044430041534
3.563622810892214776146147 0.01057895511776387777180819 1.827245621784430618106398
3.556811405446107077210627 0.03028947755888188389516991 1.834057027230538317041919
3.556811405446107077210627 -0.009131567323354135290447431 1.834057027230538317041919
3.626910603868767513091598 0.003117834769060892977088351 1.826207230900292355357806
3.628293678011178968745298 -0.0003516864842377566977363323 1.827941991526941700740849
3.622902336204787410167683 -0.01043099712854504181047677 1.836451168102394060355209
3.616127920255984395936366 -0.03021549856427258040625361 1.843225584051197074586526
3.616127920255984840025576 0.009353504307182475968618363 1.84322558405119729663113
3.626366218587144807372624 -0.004206605332306756310500884 1.82601453210290731732357
3.617857042011692669802869 -0.02052158551473564837563934 1.833786624599351267050906
3.613010085486923816944227 -0.03645116810239418247974186 1.842488499972188886744107
3.617857042011692669802869 0.02052158551473568307010886 1.833786624599351267050906
3.613010085486924261033437 0.03645116810239419635752967 1.842488499972188886744107
3.626366218587144807372624 0.004206605332306822229992971 1.82601453210290731732357
3.624983144444732907629714 -0.0007370840790081069609368525 1.824279771476257971940527
3.62443875916310975782153 0.0003516864842378227798587453 1.824087072678872711861686
3.615929582587658064340985 0.01519249850865040524228178 1.831859165175316883633627
3.607964791293828632490204 0.03259624925432519360057881 1.839823956469146093439804
3.607964791293828632490204 -0.002211252237024418244165647 1.839823956469146537529014
2.98965610642482459979874 -0.002412672290210481334388204 1.892068778715034982340626
2.981724885139859004823393 0.01505821847319300035850098 1.884137557430070053499094
2.98965610642482459979874 0.03252910923659647901562408 1.892068778715034982340626
2.98797137181899552516029 -0.03481145127240153902548059 1.872782823091397652603973
2.980714044376362004129533 -0.01894900870247168134241633 1.881518268473099109172608
2.98898221258249296994336 -0.03413755743007015203138721 1.890590660775966824758143
2.980714044376362004129533 0.01894900870247167787296938 1.881518268473099109172608
2.98898221258249296994336 0.03413755743007014509249331 1.890590660775966824758143
2.98797137181899552516029 0.03481145127240153208658668 1.872782823091397652603973
2.98797137181899552516029 -0.004434353817204595045453619 1.857594274363799202731684
2.980377097455196633291052 0.01371043078853027320784808 1.865188548727598316645526
2.987971371818995969249499 0.03185521539426514059378803 1.857594274363799202731684
2.973119770012562668171086 0.0008042240967368141733168097 1.873923994109299773214161
2.973456716933728927187985 -0.00147811793906820030004845 1.875065165127202337913559
3.636451168102393882719525 0.0104309971285449238492804 1.877097663795211701653898
3.643225584051196896950842 0.03021549856427240346445906 1.883872079744014493840609
3.643225584051196896950842 -0.009353504307182531479769594 1.883872079744014493840609
3.629676752153590868488209 -0.03645116810239414084637843 1.870323247846408687422581
3.629676752153591312577419 0.03645116810239412696859063 1.870323247846408687422581
3.622902336204787410167683 -0.01666666666666668378260496 1.86354883189760589523587
3.616127920255984395936366 -0.02397982902615093669940194 1.856774415948803103049158
3.616127920255984840025576 0.00935350430718239964078542 1.856774415948803103049158
3.68396731492971740706821 0.01617267474869388960145855 1.882452355777963326488589
3.691983657464859014396552 0.03347332301174418822675705 1.89085568395050174217431
3.691983657464859014396552 -0.001127973514356388207158233 1.890855683950501964218915
3.680749847706926480839229 -0.02041848303211105455923224 1.880115866110543265676824
3.690642098424790962241104 -0.03396731492971696853011565 1.889761120869420496504176
3.672099523575401924802009 -0.0364511681023940853352272 1.885648355473007686811115
3.672099523575401480712799 0.03645116810239406451854549 1.885648355473007464766511
3.680749847706926480839229 0.02041848303211101292586882 1.880115866110543265676824
3.690642098424790962241104 0.03396731492971694077454003 1.889761120869420274459571
3.674075064211852925666335 -0.003117834769060777617977198 1.872807101019085873616632
3.672199156029130495682011 0.000633981596383591098665955 1.871565174432747724608816
3.663548831897605939644791 0.01043099712854492558400388 1.877097663795211701653898
3.656774415948802925413474 0.03021549856427234795330783 1.883872079744014715885214
3.656774415948802925413474 -0.009353504307182475968618363 1.883872079744014493840609
3.702546843814266797068058 -0.04574766290580520311515045 1.89829450672007049583101
3.703831661827027943445501 -0.01582531613233039910482169 1.896589013440141302524466
3.702546843814266797068058 0.01409703064114471889045621 1.898294506720070273786405
3.702126168547097861960538 -0.04658901344014179657371244 1.898047510761084355479511
3.702126168547098306049747 0.04658901344014146350680505 1.898047510761083689345696
3.701705493279929815031437 0.04609502152216871095902206 1.897800514802097326949593
3.70341098655985945242719 0.01617267474869359122902068 1.896342017481154940128363
3.701705493279929815031437 -0.01374967202478121104658459 1.897800514802097993083407
2.992458527684862534812282 0.004751166109174730263486897 1.912292638424312629652491
2.984917055369724625535355 -0.01666666666666667684371106 1.919834110739449872795603
2.992458527684862534812282 -0.0285821672241586000051683 1.912292638424312629652491
2.976419601545562620970031 -0.0003282409816570801557207571 1.92674784252722020028159
2.975463620036538081592425 0.001583722036391542855107706 1.92612010199985261849065
2.98291885820642344029352 -0.01905461279979506900028596 1.917056415636494204335349
2.991654303588125785040575 -0.0349170553697248989277746 1.910708916387920952573154
2.975225628478998629589114 -0.002716187114785470306521642 1.925553869460655764811463
2.975225628478998629589114 0.002716187114785439081499074 1.925553869460655764811463
2.98291885820642344029352 0.0190546127997950447141573 1.917056415636493982290744
2.991654303588124896862155 0.03491705536972487811109289 1.910708916387920730528549
2.98965610642482459979874 -0.002412672290210502584750785 1.907931221284965062068295
2.981724885139859004823393 0.0150582184731929916848836 1.915862442569929768865222
2.98965610642482459979874 0.03252910923659649289341189 1.907931221284965062068295
2.974031655412434194118987 0.0003282409816570492017487326 1.924359896394091551385941
2.974269646969974090211508 -0.000804224096736847458323505 1.924926128933288627109732
3.037707361575686881849379 -0.004751166109174644394674836 1.942458527684862490403361
3.030165889260549860750871 0.0134992225938836141185817 1.934917055369724581126434
3.037707361575687770027798 0.03174961129694187089711477 1.942458527684862490403361
3.022624416945411951473943 -0.03491705536972492668335022 1.927375583054587337983321
3.022624416945412395563153 0.03491705536972491974445632 1.927375583054587337983321
3.007541472315137021098508 0.004751166109174765825318154 1.912292638424312407607886
3.015082944630274486286226 -0.01349922259388349095321491 1.919834110739449650750998
3.007541472315137021098508 -0.0317496112969417459970245 1.912292638424311963518676
3.73439550671889630706346 0.01457715414829002451013729 1.931226403688581783057998
3.74219775335944859762094 0.03230599420051956383037606 1.939046067455508337573633
3.74219775335944859762094 -0.003151685903939507871207582 1.939046067455508337573633
3.725951761959950037095268 -0.03439550671889619881671507 1.923424157048029714545123
3.725951761959950037095268 0.03439550671889619881671507 1.923424157048029936589728
3.718149515319398634716208 -0.01666666666666666990481716 1.915604493281103160029488
3.709705770560451476569597 -0.03142980941343388040509765 1.907802246640551313561218
3.709705770560451476569597 0.001903523919899452465642753 1.907802246640551313561218
3.77582225339209731629353 0.001072371789427294065319418 1.925250118397329623931569
3.776215405538119629369476 -0.0002860674973839986631740651 1.925929338040735405712667
3.768867827456998220725382 -0.01440908866485739528440213 1.934405705122760998904141
3.761127097229856275362181 -0.03214812712095133778733569 1.942202852561380588269913
3.761127097229856275362181 0.003329949791236542448041869 1.942202852561380588269913
3.775183084237158759322028 -0.002350710099304341438308796 1.924897016739774979754429
3.766706717155133610219764 -0.01873130926858699446535539 1.932328627562612144430432
3.759998308228951202636381 -0.03440570512276059506051595 1.941158096302192159754441
3.766706717155133610219764 0.018731309268587022220931 1.932328627562612144430432
3.759998308228951646725591 0.03440570512276061587719767 1.941158096302192159754441
3.775183084237158759322028 0.002350710099304379168544399 1.924897016739775423843639
3.774789932091137334424502 -0.0009922708124930487098153131 1.924217797096369420017936
3.774150762936198777453001 0.0002860674973840363934096676 1.923864695438815219930007
3.765674395854173628350736 0.01457715414829003665320162 1.931296306261652162561404
3.757837197927086592130763 0.03223609162744976719405798 1.939081018742043527325336
3.757837197927087036219973 -0.00308178333086970169391039 1.939081018742043527325336
3.042211101095168235275423 0.003266606571014955828768933 1.961055505475845617269215
3.03442220219033709227574 -0.0166666666666666525575824 1.968844404380676538224293
3.042211101095168235275423 -0.03006672676231837010307757 1.961055505475845617269215
3.025922036334067755092292 -0.0003336650458724472502469727 1.976255701379941109863125
3.025210769382629116819317 0.001088868857005002984891795 1.97587809947437476054688
3.031502184707247415929032 -0.01933925756006316457047411 1.966419240076973551367701
3.040627379058777002285296 -0.03442220219033831352106745 1.959966636618840851724599
3.024585740887369755824921 -0.003006255939268957094734347 1.974919405933242888551149
3.024585740887369755824921 0.003006255939268995258650818 1.974919405933242888551149
3.031502184707247415929032 0.01933925756006318885660278 1.966419240076973551367701
3.040627379058777002285296 0.03442220219033832739885526 1.959966636618840851724599
3.037707361575686881849379 -0.004751166109174573271012321 1.957541472315137642823402
3.030165889260548972572451 0.01349922259388362799636951 1.965082944630275108011119
3.037707361575686881849379 0.03174961129694181538596354 1.957541472315137642823402
3.023249445440671312468339 0.0003336650458724856852139873 1.973583110486544445194568
3.023874473935930673462735 -0.00158372203639150642591471 1.974541804027676761279508