# geometry NO_DATA 876
#  x  y  z
3.042553851971715239699279 0.005323111830290998443271366 1.612769259858574333321712
3.035107703943431989301871 -0.01666666666666664214924154 1.620215407886862024611219
3.042553851971715239699279 -0.02801022150304232488648992 1.612769259858574333321712
3.018454519059144303128051 -0.01663970310190982654363623 1.635107703943432966298133
3.009247482203139867351638 -0.03508074037867597860795854 1.64255385197171666078475
3.009247482203139867351638 0.001801334174856302318759593 1.64255385197171666078475
3.027661555915143853923155 -0.03510770394343279421356385 1.612769259858573223098688
3.011008371030855279570915 -0.03510770394343280115245776 1.627661555915144386830207
3.011008371030855279570915 0.03510770394343281503024556 1.627661555915144386830207
3.027661555915143853923155 0.03510770394343281503024556 1.612769259858573223098688
3.092053286144313517525006 0.002319716865874429760630004 1.610266430721561281558252
3.084106572288626502142961 -0.0166666666666666594964763 1.618213144577250739430951
3.092053286144313517525006 -0.03101361646745890571219562 1.610266430721561281558252
3.074886053650242700996387 -0.001774370610101314027495789 1.626660424260343962288289
3.073612248867545027053438 0.0007732389552931865544030399 1.627160990087747949317531
3.076159858432936822225656 -0.03410657228862650630629716 1.610266430721561281558252
3.06616610083926222074524 -0.0192142762320611573678697 1.61971484205945959189421
3.059493191766270214770884 -0.03410657228862649936740326 1.611267562376366146992268
3.066939339794553021079082 0.0192142762320611712456575 1.618713710404654726460194
3.058219386983573429006356 0.0351077039434346538371301 1.611768128203770134021511
3.076159858432936822225656 0.03410657228862651324519106 1.610266430721561059513647
3.057446148028282184583304 0.005323111830292844189049806 1.612769259858575665589342
3.064892296056564990891502 -0.01311792544647514408007183 1.620215407886863800968058
3.057446148028282184583304 -0.03155896272324312801238477 1.612769259858575221500132
3.141967610375793640287156 0.001805662254755751195550717 1.609838051878961895369002
3.133935220751587369392155 -0.01666666666666666296592325 1.617870441503171274888473
3.141967610375793640287156 -0.03152767107857757516997665 1.609838051878961895369002
3.125215267940607333230219 -0.0007732389552934152126412171 1.625988506895900798099319
3.124527704753834456141703 0.0006018874182536290565539994 1.626074182664420497701485
3.125902831127378878051104 -0.03393522075158696138519332 1.609838051878962561502817
3.116580990898147440759658 -0.01804179304021371471611346 1.618127468808731039828785
3.109236164460711826507122 -0.03393522075158696832408722 1.610009403416002626840964
3.117182878316398841889168 0.01804179304021371471611346 1.617956117271691640624454
3.108548601273938061240187 0.0341065722886267491675838 1.61009507918452232644313
3.125902831127378433961894 0.03393522075158696138519332 1.609838051878962561502817
3.107946713855686660110678 0.002319716865874665249341868 1.610266430721561725647462
3.115893427711373675492723 -0.01512018875608541965127607 1.618213144577250961475556
3.107946713855686660110678 -0.03256009437804550238348966 1.610266430721561725647462
3.191963117457201182247672 0.001778704743196596587545555 1.609815587285996496547114
3.183926234914401298681241 -0.01666666666666667337426411 1.617852469828799266693409
3.191963117457201182247672 -0.03155462859013673238006703 1.609815587285996496547114
3.175291957871941406210681 -0.0006018874182534645830844333 1.625893845290194983377319
3.174694563372280953217341 0.0005929015810675593647904869 1.625898338208787929914934
3.175889352371599194668761 -0.03392623491440090871540392 1.609815587285996940636323
3.16666217374807423823313 -0.01786145566598769732213903 1.617865948584578550395463
3.159222685704932587213989 -0.03392623491440090871540392 1.609824573123183499845368
3.1672550753291393021982 0.01786145566598767997490427 1.617856962747392657320233
3.15862529120527213422065 0.03393522075158677403505791 1.609829066041776446382983
3.175889352371599194668761 0.03392623491440089483761611 1.609815587285997162680928
3.158032389624207070255579 0.001805662254755567965383567 1.609838051878962339458212
3.166064779248413785239791 -0.01546289183016455112684717 1.617870441503171718977683
3.158032389624207070255579 -0.03273144591508465872653488 1.609838051878962339458212
3.242005051735676435242794 0.002030310414052232184656255 1.610025258678375426057983
3.234010103471352870485589 -0.01666666666666667684371106 1.618020206942702765573472
3.242005051735676435242794 -0.03130302291928109548191372 1.610025258678375426057983
3.225380319347486590686458 -0.0005929015810670714738128684 1.625973220928553342190526
3.224745483487943431555323 0.0006767701380200726252525656 1.625931286650076801336695
3.226015155207027085282334 -0.03401010347135342837265881 1.610025258678376758325612
3.216708600945143103899682 -0.01793633838575382083435628 1.617894404107274697324215
3.209348488540360921916772 -0.03401010347135342837265881 1.609941390121425230930186
3.217385371083160805483203 0.01793633838575379654822761 1.617978272664227334942666
3.208713652680817762785637 0.03392623491440037442057331 1.609899455842948690076355
3.226015155207027085282334 0.034010103471353414494871 1.610025258678376758325612
3.208036882542800061202115 0.001778704743196073134736679 1.609815587285996052457904
3.216073765085599944768546 -0.01548086350453764872825424 1.617852469828798156470384
3.208036882542800061202115 -0.03274043175227135671345735 1.609815587285996052457904
3.292118033484642936059572 0.002708200907841620905941449 1.610590167423199492446884
3.284236066969284273397989 -0.01666666666666666990481716 1.61847213393856326213438
3.292118033484642936059572 -0.03062513242549171760265025 1.610590167423199492446884
3.275564348566942118878842 -0.0006767701380190897959832075 1.626241118704960797458625
3.274774596679956850664439 0.0009027336359510768114614021 1.626128136955994563095373
3.276354100453922502111936 -0.03423606696928441217586681 1.610590167423201268803723
3.266779648415632841818024 -0.01824617044063683163335199 1.618133188691667445624489
3.259687433787256338746374 -0.03423606696928441217586681 1.610364203925271908701689
3.26768238205158034759279 0.01824617044063683163335199 1.618359152189598804127968
3.258897681900271070531971 0.03401010347135241529414884 1.610251222176305896383042
3.276354100453922946201146 0.03423606696928441217586681 1.610590167423201268803723
3.257994948264324008846415 0.002030310414051233417614961 1.610025258678374981968773
3.265989896528648017692831 -0.01531312639063452107901497 1.618020206942701655350447
3.257994948264324008846415 -0.03265656319532027340724056 1.610025258678374981968773
3.34249285296996001548564 0.00495711781973639555032296 1.612464264849776895971445
3.334985705939919498064228 -0.01666666666666668378260496 1.619971411879827849489288
3.34249285296996001548564 -0.02837621551359693905514092 1.612464264849776451882235
3.326201005788611553271039 -0.0009027336359493841550297177 1.627103739424560657766961
3.324923452667343681810053 0.001652372606585944276452738 1.626728919939242290482184
3.327478558909871431126248 -0.03498570593991930099964094 1.612464264849780448685124
3.317041486151985019148469 -0.01922177290920201037094373 1.618846953423879853062317
3.310811892243205267760686 -0.03498570593991930099964094 1.611714625879150597498324
3.318693858758564374511479 0.01922177290920198261536811 1.619596592394513479007401
3.3095343391219373962997 0.03423606696928269133017864 1.611339806393832230213548
3.327478558909871431126248 0.03498570593991929406074703 1.612464264849780670729729
3.307881966515358929115109 0.002708200907839898759210673 1.610590167423198604268464
3.315763933030717147687483 -0.01486119939477613741130035 1.618472133938561485777541
3.307881966515358929115109 -0.03243059969739216230610879 1.610590167423198604268464
3.394780055581874567138811 0.01868033349118712257985742 1.623900277909313238922095
3.389560111163748334917045 -0.01666666666666667337426411 1.629120222327467892853292
3.394780055581874567138811 -0.01465299984214621029088299 1.623900277909313238922095
3.380400591527124021240525 -0.001652372606582392213295241 1.632052964133706041138794
3.376461016308624607518141 0.006226777830414823890203824 1.629765761521789757537704
3.384340166745603895037675 -0.0395601111637481767102642 1.623900277909323008884712
3.368953869278583201918309 -0.02454581710366390140398707 1.62225861449174013628749
3.367673500078937287582903 -0.0395601111637481767102642 1.619325872685512202053815
3.375180647108978693182735 0.02454581710366387364841145 1.626833019715561379214819
3.363733924860437873860519 0.03498570593991569971370481 1.617038670073595918452725
3.384340166745603895037675 0.0395601111637481767102642 1.623900277909323008884712
3.357507147030041938506884 0.00495711781973280814217464 1.612464264849775119614606
3.365014294060083788195925 -0.0133619214535162442181182 1.619971411879824074731005
3.357507147030041938506884 -0.03168096072676528096589976 1.612464264849774675525396
3.426099722090616417347064 -0.01868033349125176184601926 1.644780055581868793979083
3.420879777672505284158433 0.004213111005819001816941061 1.639560111163737232686799
3.426099722090616417347064 0.02710655550288976201045443 1.644780055581868793979083
3.415659833254373722866148 -0.03956011116373742836360705 1.63434016674558835191533
3.415659833254373722866148 0.03956011116373742836360705 1.634340166745588129870725
3.405219944418131028385233 0.01868033349117638117209417 1.623900277909307465762367
3.410439888836262145588307 -0.004213111005894381623504419 1.629120222327456790623046
3.405219944418131028385233 -0.02710655550296514615382648 1.623900277909307465762367
2.942640599384180433162328 0.005843596305088176456887794 1.663202996920906784339422
2.935281198768362020956602 -0.01666666666666666296592325 1.670562397536725640634359
2.942640599384180433162328 -0.02748973702824514947495871 1.663202996920906784339422
2.920562397536724752455939 -0.01277093579660842220802053 1.685281198768362909135021
2.913202996920905896161003 -0.03138546789830480576721783 1.692640599384181543385353
2.913202996920905896161003 0.005843596305087961351176773 1.692640599384181543385353
2.927921798152536503323518 -0.03528119876836304652512055 1.663202996920899678912065
2.913202996920898790733645 -0.03528119876836305346401446 1.677921798152537391501937
2.913202996920898790733645 0.03528119876836305346401446 1.677921798152536947412727
2.927921798152536503323518 0.03528119876836303958622665 1.663202996920899678912065
2.991919673360189158017874 0.0005131035593171255973499179 1.658593430199127860547037
2.983839346720378760124959 -0.0166666666666666664353702 1.66717622513984764509587
2.991919673360189158017874 -0.03282022977401620467130527 1.658593430199127860547037
2.974532080669526568073024 -0.001947865435037573903290231 1.676479946104563634179385
2.973305141258484773914006 0.0005060133870450301760146594 1.677200872128559838714068
2.975759020080564809518364 -0.03383934672037836044466985 1.659095898500034582667695
2.965945740642670358511168 -0.01912054548874926596102597 1.669841471512737429705453
2.959092353413897757974382 -0.03383934672037836044466985 1.661040218848927718653385
2.96645175402971306155564 0.01912054548874926596102597 1.66839961946475057175121
2.957865414002856851993783 0.03528119876837089441412587 1.661761144872923923188068
2.975759020080564809518364 0.03383934672037836044466985 1.659095898500034582667695
2.957359400615813704860102 0.005843596305096033019510493 1.663202996920910781142311
2.96471880123162856435215 -0.01277093579660820189813908 1.670562397536733856284741
2.957359400615813704860102 -0.03138546789831243855051213 1.663202996920910781142311
3.00003447911871390374472 -0.04996199368345716207429064 1.650020997336335337735136
3.000020997336335426552978 -0.04996199368345716207429064 1.650024542422471540703555
3.000020997336335426552978 0.04996199368345714819650283 1.65002454242247176274816
3.00003447911871390374472 0.04996199368345714819650283 1.650020997336335781824346
3.000045966723027479616803 -0.04993503011870033259089752 1.650019003158271546638503
3.000051488098920859926011 -0.01663970310190984389087099 1.650038006316542738005637
3.000045966723027923706013 0.01665562391488064480915554 1.650019003158271546638503
3.000038006316542382734269 -0.01665957649439456927931147 1.650041551402679163018661
3.00001900315827096932253 0.01663575052239591942071506 1.650026093330543730530735
3.00001900315827096932253 -0.04995490351118506144878495 1.650026093330543286441525
3.441902127021448265509207 0.00141276212868353856673409 1.659510635107234843843571
3.43380425404289724156115 -0.0166666666666666664353702 1.667608508085790086639122
3.441902127021448265509207 -0.03192057120464979191876154 1.659510635107234843843571
3.425301730197761074236951 -0.0003383810236054483368273171 1.675640111221366135296762
3.424897079331176374950019 0.0004709207095638717407992679 1.675573841378386941158851
3.424228626942462216931062 -0.02336436520668885158391603 1.663788738106219300405542
3.435675349191024352535351 -0.03380425404289720547890141 1.659039714397675169266222
3.42195288092774996258072 -0.007036079563627629582245326 1.672291261951355245685136
3.42195288092774996258072 0.007036079563627622643351422 1.672291261951355245685136
3.424228626942462216931062 0.02336436520668884811446908 1.663788738106219300405542
3.435675349191024352535351 0.03380425404289720547890141 1.659039714397675169266222
3.426099722090589327905263 -0.01868033349130597542409049 1.655219944418104383032642
3.420879777672451105274831 0.004213111005819000082217585 1.660439888836208410793915
3.426099722090589327905263 0.02710655550294396864963176 1.655219944418103938943432
3.418604031657738850924488 0.0003383810236054415063536305 1.668942412681344134028905
3.421548230061164819204578 -0.00622677783045830993829961 1.672224992108376051547225
3.492115556110205520923273 0.002693336661222049503716658 1.660577780551016235932593
3.484231112220411041846546 -0.01666666666666666990481716 1.668462224440816488169048
3.492115556110205520923273 -0.03063999667211128596910896 1.660577780551016235932593
3.475662318532297234696671 -0.0004709207095616710814396655 1.676133239241858641221938
3.474977968733977462534313 0.0008977788870781537805890182 1.675919810153100542038374
3.47634666833061389823456 -0.03423111222041148871131355 1.660577780551019344557062
3.466880095755424662229416 -0.01803536626330649178528986 1.667821937174546187421242
3.459680001663946846690578 -0.03423111222041148177241965 1.660150922373507142992821
3.467777874642499202906265 0.01803536626330648831584291 1.668248795352061275565347
3.45899565186562707452822 0.03380425404289499891063997 1.659937493284748821764651
3.47634666833061389823456 0.03423111222041148177241965 1.660577780551019344557062
3.458097872978552089762161 0.001412762128681334383717427 1.659510635107233733620546
3.466195745957104890067058 -0.01572482524754700156099929 1.667608508085788088237678
3.458097872978552089762161 -0.03286241262377533750571601 1.659510635107233733620546
3.543412973415577482683148 0.01047784049342850853925313 1.667064867077851619825424
3.536825946831154254823559 -0.01666666666666666296592325 1.673651893662291501030381
3.543412973415577482683148 -0.02285549283990483127038118 1.667064867077851619825424
3.528043724054283902802354 -0.0008977788870753050393808126 1.678941502941359020795176
3.525848527861835002283897 0.003492613497821097593570849 1.677644085635986215265802
3.530238920246720368822935 -0.0368259468311544144181191 1.667064867077857837074362
3.51796408397203963502875 -0.02105705905156305540737449 1.669759641746187073252372
3.513572253580053761368163 -0.0368259468311544144181191 1.664470032467125992781121
3.521456697469850016801729 0.0210570590515630762240562 1.672354476356925134794551
3.511377057387605749028126 0.03423111222040865764260076 1.663172615161753187251747
3.530238920246720812912145 0.03682594683115442135701301 1.667064867077857615029757
3.507884443889795367255147 0.002693336661219222771812554 1.660577780551015125709569
3.515768887779590734510293 -0.01487110889252275802707715 1.668462224440814267722999
3.507884443889795367255147 -0.03243555444626475270375465 1.660577780551015125709569
3.583043394537066106408929 -0.01036957887850756439285238 1.693412973415573841151627
3.576402237145171802978894 0.009789701285973805011675353 1.686825946831147726712175
3.583043394537066106408929 0.02994898145045518655926742 1.693412973415573841151627
3.569815210560745910584046 -0.03682594683114805145240922 1.680238920246711176176291
3.569815210560746354673256 0.03682594683114803757462141 1.680238920246710954131686
3.556587026584426158848373 0.01047784049342212475686154 1.667064867077848067111745
3.563174053168851607154011 -0.009681439671059260260177481 1.673651893662285061736839
3.556587026584426158848373 -0.02984071983554063139942869 1.667064867077848067111745
2.892790078929400099383429 0.006740473576408522772551724 1.713950394647008046433712
2.885580157858800731673909 -0.0166666666666666525575824 1.721160315717604749607972
2.892790078929400099383429 -0.02659285975692481443499737 1.713950394647008046433712
2.871160315717597999451982 -0.01217301761573946240757582 1.735580157858800820491751
2.863950394646994190850364 -0.03108650880787375975211617 1.742790078929400410245876
2.863950394646994190850364 0.006740473576394821059176721 1.742790078929400410245876
2.878370236788191149912564 -0.03558015785880094816739927 1.713950394646995167846626
2.863950394646987973601426 -0.03558015785880094816739927 1.728370236788191238730406
2.863950394646987973601426 0.03558015785880096204518708 1.728370236788191238730406
2.878370236788191149912564 0.03558015785880096898408098 1.713950394646995167846626
2.927151303844644392171404 0.0004068768192094696545431376 1.723255572974564886479243
2.926380809536729188380377 -0.001947865435039787193605143 1.724432944101689679783362
2.924283464556467926342975 -0.002246824525482499657763613 1.726530289081950941820764
2.922956613884121868096599 0.0004068768192094724192586774 1.727450262935087410554047
2.918250914612998236918884 -0.019021408920915909568361 1.716303049177958506277264
2.911662008305089699433665 -0.03528119876837315649353854 1.707766277435020629837936
2.915746692813530049903648 -0.01932036801135861986411513 1.720240341864483157863219
2.90894364856214515668853 -0.03374021015254276972816783 1.711190473087615737668443
2.916153569632736974881482 0.0193203680113586649669255 1.718400394158219768314666
2.907616797889798654352944 0.03558015785881588066708048 1.712110446940751984357121
2.919791903228820206805949 0.01902140892091594773227747 1.715896172358751359254825
2.910891513997174051553429 0.03374021015254278360595563 1.708943648562144979052846
2.920562397536735410596975 -0.01666666666666664908813544 1.71471880123162678799531
2.913202996920910781142311 -0.02748973702823526155114564 1.707359400615813260770892
2.913202996920910781142311 0.005843596305098075656403456 1.707359400615813260770892
2.90720992107059217346432 0.006740473576423433588189482 1.713950394647015373905674
2.914419842141183991657272 -0.0121730176157257580921156 1.721160315717619626596502
2.90720992107059217346432 -0.03108650880787497405854936 1.713950394647015373905674
3.591947767297563931521154 0.001755496572151014553209158 1.709807729274586352019583
3.583895534595128218313675 -0.01666666666666666990481716 1.717825515583639717220876
3.591947767297563931521154 -0.03157783676118231658280777 1.709807729274586352019583
3.575406112687526949400763 -0.0003121771485351995103693645 1.725718289836063235043184
3.574968923482361393695328 0.0005622012617959746758056205 1.725593277779433165619594
3.578539257302255194304053 -0.02050225587172065100372009 1.715311073325935575795143
3.588509284607217075802055 -0.03389553459512931188335472 1.709211081619408822973583
3.573488318084999892931819 -0.00414776635358918462082034 1.723800495233536622663451
3.573488318084999892931819 0.004147766353589181151373388 1.723800495233536622663451
3.578539257302255194304053 0.02050225587172064753427314 1.715311073325935353750538
3.588509284607217075802055 0.03389553459512929800556691 1.709211081619408378884373
3.583153007314344051792432 -0.01015035332395086004053653 1.706696639361704237458639
3.576621462699727693745899 0.009789701285973815420016209 1.713393278723408741370804
3.583153007314344051792432 0.02972975589589849088056894 1.706696639361704237458639
3.571570523482473280552085 0.0003121771485351965830234988 1.721882700631009344149902
3.573051128879834781315594 -0.003273387943258010759906007 1.723675483176905887106045
3.6427142395769438465436 0.006285437461647407422771217 1.713571197884703245506444
3.635428479153888225994251 -0.01666666666666666296592325 1.720856958307767969884594
3.6427142395769438465436 -0.02704789587168592371324571 1.713571197884703245506444
3.626791097288752041549742 -0.0006080970636062326285103952 1.727399194352358557935645
3.625439475846671033565372 0.00209514582055530390602982 1.726655669973883977519336
3.628106861207899047627734 -0.03542847915388863677677023 1.713535340361778569473472
3.617410191045140610555109 -0.01936990955082820708987867 1.718614935763924878031617
3.611440194541231996083752 -0.03542847915388863677677023 1.712036842196410058036804
3.619469479342762419094015 0.01936990955082820362043172 1.720077576406368935479918
3.610088573099151432188592 0.03394143039693956614977211 1.711293317817935477620495
3.628106861207899047627734 0.03542847915388863677677023 1.713535340361778569473472
3.608029284801529179560475 0.001801392373961272722754368 1.709830677175491420172193
3.616058569603059602570738 -0.01547337135631162569060493 1.717871411385450297615307
3.608029284801530067738895 -0.03274813508658452887445378 1.709830677175491420172193
3.686780627999699078145568 -0.005933611577243695645034194 1.742714239576941936959997
3.67931895463443581206775 0.01282820090997420503509119 1.735428479153884318009204
3.686780627999699078145568 0.03159001339719209183742876 1.742714239576942159004602
3.672033194211378415161562 -0.03542847915388455670715473 1.728142718730821592032498
3.672033194211378415161562 0.03542847915388456364604863 1.728142718730821592032498
3.657285760423057752177556 0.006285437461643336026773099 1.713571197884701025060394
3.664571520846115149083744 -0.01247637502557455424501143 1.720856958307763751037101
3.657285760423057752177556 -0.03123818751279244798624291 1.713571197884701025060394
2.877561237771172564237077 0.0006288264913910019716924982 1.773067588720217857556349
2.876752238754129553655048 -0.002246824525477784245675039 1.774505414228652044883461
2.867924319649445497049101 -0.01540901368389009304382675 1.783962159824724169610022
2.859905399561804451025182 -0.03270450684194775581303816 1.791981079912362107009471
2.859905399561804451025182 0.001886479474167571893788997 1.791981079912362107009471
2.86873331866648761945271 -0.0195423176835354504843334 1.766486494141009888636518
2.862332396612922380541022 -0.03558015785881111364696849 1.75783874756198099653659
2.859905399561802674668343 -0.03396215982472432920458161 1.775943239737082013363079
2.859905399561803562846762 0.03396215982472432920458161 1.775943239737082013363079
2.87035131670056431474336 0.0195423176835354504843334 1.765857667649623152783533
2.861523397595878925869783 0.03396215982472432920458161 1.759276573070415183863702
2.871160315717607325325389 -0.01666666666666666296592325 1.764419842141188965456422
2.863950394646999075831673 -0.02659285975692835674033532 1.757209921070594482728211
2.863950394646999075831673 0.006740473576404970926234661 1.757209921070594482728211
3.691881686148535735014775 0.001670050923420181862924516 1.75978836477488487233245
3.683763372297070848304656 -0.01666666666666667684371106 1.767716711610245017283205
3.691881686148535735014775 -0.0316632824099131529593798 1.75978836477488487233245
3.675331046206385288144247 -0.0001979855147044107884120312 1.775529031721088779605111
3.675017033967164170604747 0.0004300389637369618077607225 1.775413004996572396976262
3.680946593863807070334815 -0.01846175777650221894177207 1.766199160075485607990231
3.689962453270189346454799 -0.03376337229707031262204708 1.759168358795043296538552
3.674433500651467454645172 -0.00199307662453995695223119 1.774631486166170946106035
3.674433500651467454645172 0.001993076624539945676528596 1.774631486166170946106035
3.680946593863807070334815 0.01846175777650220853343122 1.766199160075485607990231
3.689962453270189346454799 0.03376337229707029874425928 1.759168358795043296538552
3.687145674836925568484958 -0.005203517902791052369970703 1.757650807260283887245578
3.680049048308888792746529 0.01282820090997419462675033 1.76530161452056799653576
3.687145674836925568484958 0.03085991972273944075610963 1.757650807260283887245578
3.673535955096549621146096 0.0001979855147043990790285684 1.773733940611253334651565
3.674119488412247225284091 -0.001365052146098584898159523 1.774515459441654785521791
3.743448703651051978624764 0.01069222190629743121648154 1.767243518255245060544212
3.736897407302104401338738 -0.01666666666666666990481716 1.77379481460420085348062
3.743448703651051978624764 -0.02264111142703589818481191 1.767243518255245060544212
3.728222901801015787270899 -0.0006823443355098301891029089 1.778905246136525786226912
3.726099692648875194578295 0.003564073968771135428323937 1.7774643813198951480814
3.730074733258569086302714 -0.03689740730210447350323477 1.766972140560665538444596
3.718107531483297201191363 -0.02091308497094764018431334 1.769409881798648331852064
3.713408066591902922937152 -0.03689740730210448044212868 1.764028072571743877006156
3.721400227757481360413294 0.02091308497094762630652554 1.772082572092990471190888
3.711284857439761886155338 0.03401567766884315557884833 1.76258720775511301681604
3.730074733258569086302714 0.03689740730210446656434087 1.766972140560665538444596
3.707992161165578615111826 0.001922356295193038914354 1.759914517460771321566426
3.715984322331156608498759 -0.01542665470698345239752847 1.767969016982017693706553
3.707992161165578615111826 -0.03277566570915994154100659 1.759914517460771321566426
3.782756481744742771411438 -0.01069222190630718730131044 1.793448703651050246676846
3.776205185395795638214622 0.00953851872912680510963046 1.786897407302100448944771
3.782756481744742771411438 0.02976925936456080792891221 1.793448703651050246676846
3.769653889046845840482547 -0.03689740730210067098937543 1.780346110953146876454412
3.769653889046845840482547 0.03689740730210065017269372 1.780346110953146876454412
3.756551296348949353642865 0.01069222190629361829428134 1.767243518255243062142767
3.763102592697898707285731 -0.009538518729140379320829979 1.773794814604197078722336
3.756551296348949353642865 -0.0297692593645743699970474 1.767243518255243062142767
2.875844022423106771668699 0.0004303918634308204053430524 1.824586369440323263546588
2.87574480510912611208596 -0.0006288264913921524186177225 1.825115978617734890931956
2.867527450393525967342612 -0.01580588293980923417225704 1.833763725196764449165698
2.859409312991905594003583 -0.03290294146990671575458975 1.841881862598382380014073
2.859409312991905594003583 0.001291175590288249578480029 1.841881862598382380014073
2.867626667707505738746931 -0.01772588502148963324200892 1.816997841216113851459113
2.859706964933844908216543 -0.03396215982472547412207575 1.80844931195106539689732
2.859409312991904705825164 -0.03376372519676414107880902 1.825645587795143409692855
2.859409312991905594003583 0.03376372519676414801770292 1.825645587795143853782065
2.867825102335466169733991 0.01772588502148963671145587 1.816567449352685992280954
2.859607747619865136812223 0.03376372519676414801770292 1.808978921128476802238083
2.86792431964944682931673 -0.01666666666666666296592325 1.816037840175274364895586
2.859905399561805339203602 -0.0314468538591646043500738 1.808018920087637093629951
2.859905399561805339203602 0.001886479474168725051219653 1.808018920087637093629951
3.792504525815529881072052 0.005027154893178978518897271 1.812522629077648161910474
3.785009051631059939779789 -0.01666666666666666990481716 1.820018103262119879559577
3.792504525815529436982843 -0.02830617844015435868865183 1.812522629077648161910474
3.776462057836453389825238 -0.0004273209225469275446621098 1.826889378759001036911513
3.77541053822631633707374 0.001675718297727884966569212 1.826265180071410698658951
3.778825081529039398020586 -0.02190645893316884099122355 1.815722488831143177634431
3.788940451846759760456962 -0.03500905163106123041405482 1.810846910779922547263254
3.773842161703202524591916 -0.005667113189049098088967416 1.824269482625750171678192
3.773842161703202524591916 0.00566711318904908768062656 1.824269482625750171678192
3.778825081529039398020586 0.02190645893316882711343574 1.815722488831143177634431
3.788940451846759760456962 0.03500905163106121653626701 1.810846910779922547263254
3.782756481744739218697759 -0.01069222190631413313410825 1.806551296348946067382712
3.776205185395788532787265 0.009538518729126812048524364 1.813102592697892312401109
3.782756481744739218697759 0.02976925936456775723115697 1.806551296348946067382712
3.771222265569951659358594 0.0004273209225469174615819057 1.821649586492499084400265
3.772790642093065471840418 -0.003564073968774285686156311 1.82364528393815938933642
3.837477370922347752468795 -0.005027154893181841679994371 1.842504525815530147525578
3.829981896737879143444161 0.01331523007121164156596471 1.835009051631060206233315
3.837477370922347752468795 0.03165761503560514389388203 1.842504525815530147525578
3.822486422553408758062687 -0.03500905163106017570218143 1.827513577446588932673421
3.822486422553409202151897 0.03500905163106014794660581 1.827513577446589154718026
3.80749547418446931956737 0.005027154893177909929236069 1.812522629077647717821264
3.814990948368939260859634 -0.01331523007121559500076646 1.820018103262119213425763
3.80749547418446931956737 -0.03165761503560908518561945 1.812522629077647717821264