/*--------------------------------*- C++ -*----------------------------------*\
| =========                 |                                                 |
| \\      /  F ield         | OpenFOAM: The Open Source CFD Toolbox           |
|  \\    /   O peration     | Version:  v2012                                 |
|   \\  /    A nd           | Website:  www.openfoam.com                      |
|    \\/     M anipulation  |                                                 |
\*---------------------------------------------------------------------------*/
FoamFile
{
    version     2.0;
    format      ascii;
    class       volScalarField;
    location    "0.9";
    object      alpha.water;
}
// * * * * * * * * * * * * * * * * * * * * * * * * * * * * * * * * * * * * * //

dimensions      [0 0 0 0 0 0 0];


internalField   nonuniform List<scalar> 
96000
(
0
0
0
0
0
0
0
0
0
0
0
0
0
0
0
0
0
0
0
0
0
0
0
0
0
0
0
0
0
0
0
0
0
0
0
0
0
0
0
0
0
0
0
0
0
0
0
0
0
0
0
0
0
0
0
0
0
0
0
0
0
0
0
0
0
0
0
0
0
0
0
0
0
0
0
0
0
0
0
0
0
0
0
0
0
0
0
0
0
0
0
0
0
0
0
0
0
0
0
0
0
0
0
0
0
0
0
0
0
0
0
0
0
0
0
0
0
0
0
0
0
0
0
0
0
0
0
0
0
0
0
0
0
0
0
0
0
0
0
0
0
0
0
0
0
0
0
0
0
0
0
0
0
0
0
0
0
0
0
0
0
0
0
0
0
0
0
0
0
0
0
0
0
0
0
0
0
0
0
0
0
0
0
0
0
0
0
0
0
0
0
0
0
0
0
0
0
0
0
0
0
0
0
0
0
0
0
0
0
0
0
0
0
0
0
0
0
0
0
0
0
0
0
0
0
0
0
0
0
0
0
0
0
0
0
0
0
0
0
0
0
0
0
0
0
0
0
0
0
0
0
0
0
0
0
0
0
0
0
0
0
0
0
0
0
0
0
0
0
0
0
0
0
0
0
0
0
0
0
0
0
0
0
0
0
0
0
0
0
0
0
0
0
0
0
0
0
0
0
0
0
0
0
0
0
0
0
0
0
0
0
0
0
0
0
0
0
0
0
0
0
0
0
0
0
0
0
0
0
0
0
0
0
0
0
0
0
0
0
0
0
0
0
0
0
0
0
0
0
0
0
0
0
0
0
0
0
0
0
0
0
0
0
0
0
0
0
0
0
0
0
0
0
0
0
0
0
0
0
0
0
0
0
0
0
0
0
0
0
0
0
0
0
0
0
0
0
0
0
0
0
0
0
0
0
0
0
0
0
0
0
0
0
0
0
0
0
0
0
0
0
0
0
0
0
0
0
0
0
0
0
0
0
0
0
0
0
0
0
0
0
0
0
0
0
0
0
0
0
0
0
0
0
0
0
0
0
0
0
0
0
0
0
0
0
0
0
0
0
0
0
0
0
0
0
0
0
0
0
0
0
0
0
0
0
0
0
0
0
0
0
0
0
0
0
0
0
0
0
0
0
0
0
0
0
0
0
0
0
0
0
0
0
0
0
0
0
0
0
0
0
0
0
0
0
0
0
0
0
0
0
0
0
0
0
0
0
0
0
0
0
0
0
0
0
0
0
0
0
0
0
0
0
0
0
0
0
0
0
0
0
0
0
0
0
0
0
0
0
0
0
0
0
0
0
0
0
0
0
0
0
0
0
0
0
0
0
0
0
0
0
0
0
0
0
0
0
0
0
0
0
0
0
0
0
0
0
0
0
0
0
0
0
0
0
0
0
0
0
0
0
0
0
0
0
0
0
0
0
0
0
0
0
0
0
0
0
0
0
0
0
0
0
0
0
0
0
0
0
0
0
0
0
0
0
0
0
0
0
0
0
0
0
0
0
0
0
0
0
0
0
0
0
0
0
0
0
0
0
0
0
0
0
0
0
0
0
0
0
0
0
0
0
0
0
0
0
0
0
0
0
0
0
0
0
0
0
0
0
0
0
0
0
0
0
0
0
0
0
0
0
0
0
0
0
0
0
0
0
0
0
0
0
0
0
0
0
0
0
0
0
0
0
0
0
0
0
0
0
0
0
0
0
0
0
0
0
0
0
0
0
0
0
0
0
0
0
0
0
0
0
0
0
0
0
0
0
0
0
0
0
0
0
0
0
0
0
0
0
0
0
0
0
0
0
0
0
0
0
0
0
0
0
0
0
0
0
0
0
0
0
0
0
0
0
0
0
0
0
0
0
0
0
0
0
0
0
0
0
0
0
0
0
0
0
0
0
0
0
0
0
0
0
0
0
0
0
0
0
0
0
0
0
0
0
0
0
0
0
0
0
0
0
0
0
0
0
0
0
0
0
0
0
0
0
0
0
0
0
0
0
0
0
0
0
0
0
0
0
0
0
0
0
0
0
0
0
0
0
0
0
0
0
0
0
0
0
0
0
0
0
0
0
0
0
0
0
0
0
0
0
0
0
0
0
0
0
0
0
0
0
0
0
0
0
0
0
0
0
0
0
0
0
0
0
0
0
0
0
0
0
0
0
0
0
0
0
0
0
0
0
0
0
0
0
0
0
0
0
0
0
0
0
0
0
0
0
0
0
0
0
0
0
0
0
0
0
0
0
0
0
0
0
0
0
0
0
0
0
0
0
0
0
0
0
0
0
0
0
0
0
0
0
0
0
0
0
0
0
0
0
0
0
0
0
0
0
0
0
0
0
0
0
0
0
0
0
0
0
0
0
0
0
0
0
0
0
0
0
0
0
0
0
0
0
0
0
0
0
0
0
0
0
0
0
0
0
0
0
0
0
0
0
0
0
0
0
0
0
0
0
0
0
0
0
0
0
0
0
0
0
0
0
0
0
0
0
0
0
0
0
0
0
0
0
0
0
0
0
0
0
0
0
0
0
0
0
0
0
0
0
0
0
0
0
0
0
0
0
0
0
0
0
0
0
0
0
0
0
0
0
0
0
0
0
0
0
0
0
0
0
0
0
0
0
0
0
0
0
0
0
0
0
0
0
0
0
0
0
0
0
0
0
0
0
0
0
0
0
0
0
0
0
0
0
0
0
0
0
0
0
0
0
0
0
0
0
0
0
0
0
0
0
0
0
0
0
0
0
0
0
0
0
0
0
0
0
0
0
0
0
0
0
0
0
0
0
0
0
0
0
0
0
0
0
0
0
0
0
0
0
0
0
0
0
0
0
0
0
0
0
0
0
0
0
0
0
0
0
0
0
0
0
0
0
0
0
0
0
0
0
0
0
0
0
0
0
0
0
0
0
0
0
0
0
0
0
0
0
0
0
0
0
0
0
0
0
0
0
0
0
0
0
0
0
0
0
0
0
0
0
0
0
0
0
0
0
0
0
0
0
0
0
0
0
0
0
0
0
0
0
0
0
0
0
0
0
0
0
0
0
0
0
0
0
0
0
0
0
0
0
0
0
0
0
0
0
0
0
0
0
0
0
0
0
0
0
0
0
0
0
0
0
0
0
0
0
0
0
0
0
0
0
0
0
0
0
0
0
0
0
0
0
0
0
0
0
0
0
0
0
0
0
0
0
0
0
0
0
0
0
0
0
0
0
0
0
0
0
0
0
0
0
0
0
0
0
0
0
0
0
0
0
0
0
0
0
0
0
0
0
0
0
0
0
0
0
0
0
0
0
0
0
0
0
0
0
0
0
0
0
0
0
0
0
0
0
0
0
0
0
0
0
0
0
0
0
0
0
0
0
0
0
0
0
0
0
0
0
0
0
0
0
0
0
0
0
0
0
0
0
0
0
0
0
0
0
0
0
0
0
0
0
0
0
0
0
0
0
0
0
0
0
0
0
0
0
0
0
0
0
0
0
0
0
0
0
0
0
0
0
0
0
0
0
0
0
0
0
0
0
0
0
0
0
0
0
0
0
0
0
0
0
0
0
0
0
0
0
0
0
0
0
0
0
0
0
0
0
0
0
0
0
0
0
0
0
0
0
0
0
0
0
0
0
0
0
0
0
0
0
0
0
0
0
0
0
0
0
0
0
0
0
0
0
0
0
0
0
0
0
0
0
0
0
0
0
0
0
0
0
0
0
0
0
0
0
0
0
0
0
0
0
0
0
0
0
0
0
0
0
0
0
0
0
0
0
0
0
0
0
0
0
0
0
0
0
0
0
0
0
0
0
0
0
0
0
0
0
0
0
0
0
0
0
0
0
0
0
0
0
0
0
0
0
0
0
0
0
0
0
0
0
0
0
0
0
0
0
0
0
0
0
0
0
0
0
0
0
0
0
0
0
0
0
0
0
0
0
0
0
0
0
0
0
0
0
0
0
0
0
0
0
0
0
0
0
0
0
0
0
0
0
0
0
0
0
0
0
0
0
0
0
0
0
0
0
0
0
0
0
0
0
0
0
0
0
0
0
0
0
0
0
0
0
0
0
0
0
0
0
0
0
0
0
0
0
0
0
0
0
0
0
0
0
0
0
0
0
0
0
0
0
0
0
0
0
0
0
0
0
0
0
0
0
0
0
0
0
0
0
0
0
0
0
0
0
0
0
0
0
0
0
0
0
0
0
0
0
0
0
0
0
0
0
0
0
0
0
0
0
0
0
0
0
0
0
0
0
0
0
0
0
0
0
0
0
0
0
0
0
0
0
0
0
0
0
0
0
0
0
0
0
0
0
0
0
0
0
0
0
0
0
0
0
0
0
0
0
0
0
0
0
0
0
0
0
0
0
0
0
0
0
0
0
0
0
0
0
0
0
0
0
0
0
0
0
0
0
0
0
0
0
0
0
0
0
0
0
0
0
0
0
0
0
0
0
0
0
0
0
0
0
0
0
0
0
0
0
0
0
0
0
0
0
0
0
0
0
0
0
0
0
0
0
0
0
0
0
0
0
0
0
0
0
0
0
0
0
0
0
0
0
0
0
0
0
-5.451897340054958878596738e-40
-1.423256173185087630369617e-27
-2.6824133370720259196688e-26
-2.514467675874903960352278e-25
-1.563238844159275640612229e-24
-7.251863106308429257922758e-24
-2.677781881633846605022316e-23
-8.198880066872472577947148e-23
-2.141128037140469733884196e-22
-4.868690702619831511489122e-22
-9.793039279984439783913627e-22
-1.764270127224988120304439e-21
-2.875591310662238750303289e-21
-2.698504340164423493281248e-21
-2.510536726681426367129577e-21
-2.314870633611465801214537e-21
-2.114801550355006399849994e-21
-1.913631982717828916828066e-21
-1.714563786935141753863336e-21
-1.520594717049001116121216e-21
-1.334424729207135077568055e-21
-1.158377138803476033428152e-21
-9.94338863759953869155213e-22
-8.437227600742811155489441e-22
-7.074535574642715626855479e-22
-5.859772629707747354008374e-22
-4.792922712288805003330787e-22
-3.869989596350576119826483e-22
-3.083633979951285458677611e-22
-2.423900745960437137161164e-22
-1.878982939148217921897677e-22
-1.435971377319092950571435e-22
-1.081545464913305973007602e-22
-8.025706867642123568360899e-23
-5.865800859901839195216653e-23
-4.221293229347417019947614e-23
-2.990263217267884481966566e-23
-2.084459636832809446563471e-23
-1.429470989338391057011847e-23
-9.641306505811789555848608e-24
-6.393806581824417374753441e-24
-4.168062243776782754580072e-24
-2.670249847802281012415605e-24
-1.680771175773837854263986e-24
-1.039212978027779609666576e-24
-6.310221582171149134721478e-25
-3.762168535095244003913888e-25
-2.201911570530725166355544e-25
-1.264878841137464354237297e-25
-7.130336054596540764552463e-26
-3.943781997653589997619462e-26
-2.139896159994474673295333e-26
-1.138910770729209081782846e-26
-5.944966060845851355414009e-27
-3.043142436030565789008429e-27
-1.527438938581339937872061e-27
-7.516822412131011877646625e-28
-3.626588240318427333787151e-28
-1.715238992406828292095736e-28
-7.952182130142097332080365e-29
-3.613763834797836977699161e-29
-1.609625250564345876387082e-29
-7.02690505698892728828475e-30
-3.006512575974202198580267e-30
-1.26069240525633145640018e-30
-5.180739925505295865909425e-31
-2.086420255952005949553515e-31
-8.234381079324113867722231e-32
-3.184723568949491417752383e-32
-1.207026337021805103000908e-32
-4.482892501400801913226361e-33
-1.631503818698047154724029e-33
-5.818304562525504404387127e-34
-1.364625253004024446759157e-34
-3.086730161653806135491468e-35
-6.739209562342520841415029e-36
-1.421211308321007510894257e-36
-2.89682315389161277846901e-37
-5.709976933582982037081385e-38
-1.088911717113424732326222e-38
-2.009808206503943213140486e-39
-3.591176080693674901869111e-40
-6.213135418984281931567572e-41
-1.040875635290611362743472e-41
-1.688358034505545643444809e-42
-2.650951711531573251981582e-43
-4.027331015600973618227943e-44
-5.91568342788432826411646e-45
-8.392799284462361388183495e-46
-1.148294315648132846612113e-46
-1.511695155900218137182863e-47
-1.908461483374707020224927e-48
-2.298664507014064332038133e-49
-2.61958201699169868401754e-50
-2.78393443836333226704148e-51
-2.681504822322951691919482e-52
-2.185184998230120448352042e-53
-1.161944221052032267170367e-54
5.116283790316047904368564e-56
2.930583257593642590307373e-56
6.142056329491333722875088e-57
1.012802833384084365513746e-57
1.479376414502366604604004e-58
1.996487717544243225998895e-59
2.539486240234594844704955e-60
3.07833058804347554857153e-61
3.58031052483275889263662e-62
4.013331080353871148617497e-63
4.349300439167314126898139e-64
4.567125760937968678818548e-65
4.654875895036689081325944e-66
4.610807055997245302603447e-67
4.443138330244830271749256e-68
4.168668476512608581898042e-69
3.810502548430062728366703e-70
3.395273522078165002908713e-71
2.95028296437331896678407e-72
2.50094654892180634559621e-73
2.068831618537512078170078e-74
1.67044192278767830603499e-75
1.31676879588415132214842e-76
1.013513839452479190633909e-77
7.618120794626940603749908e-79
5.592522112190188083640195e-80
4.009978205165417888727435e-81
2.808495802435096076869878e-82
1.921397561317575039023324e-83
1.284040127145854939066424e-84
8.382174888123251507230384e-86
5.344949871113755429768307e-87
3.329085994661013805314008e-88
2.025258708917541617377009e-89
1.203328163777415695507198e-90
6.982392304094427879925041e-92
3.956437125128850437219692e-93
2.188982695867491015610056e-94
1.182419654137016698637057e-95
6.235058592332755111523076e-97
3.209168648938918919185685e-98
1.612004939474841799278368e-99
7.901252732375017518159143e-101
3.778421601446322487731313e-102
1.762519830542714583598847e-103
8.018369586678836047129373e-105
3.556975648908783979004564e-106
1.538252536581420724927639e-107
6.483808762983957107516465e-109
2.663097127789672560132369e-110
1.065591836180863730371161e-111
4.152683327500516816668608e-113
1.575729650506265981331328e-114
5.820015534204850282282074e-116
2.091818900732274643036531e-117
7.313790918876763930292407e-119
2.486756378902572999507542e-120
8.219439863788921921568118e-122
2.640021225764689221460786e-123
8.236793665884182579819714e-125
2.495254209850743689899348e-126
7.336482192309965202533888e-128
2.09255917848130643190133e-129
5.78727128563044370849247e-131
1.551150176443241265832491e-132
4.02701219900098679467535e-134
1.012075429384168307451024e-135
2.460826281052754025092668e-137
5.78507387278444105959656e-139
1.314019087744122605569843e-140
2.881681611572284038164056e-142
6.096897307193648048897266e-144
1.243471582686892696249957e-145
2.442581513758586047938496e-147
4.616841695016864062022959e-149
8.388648811140717905625852e-151
1.463617592175582515593044e-152
2.44937408974322975351567e-154
3.926810776094243074599523e-156
6.022898586573571966615827e-158
8.825273906078154695623461e-160
1.23347825977571562219994e-161
1.64164639197099425084173e-163
2.076678883134060464107525e-165
2.491843597455092111954172e-167
2.829867468942125651437285e-169
3.034143178623900912715262e-171
3.06297640117278945370645e-173
2.902443541258469886678424e-175
2.572813603274350228674491e-177
2.125174036758433934604029e-179
1.628563190919019046272757e-181
1.151950444887190039910278e-183
7.476890449596444584647632e-186
4.422379565195272224091038e-188
2.364017351717947124343674e-190
1.130722280824087026406462e-192
4.779610026457576972505536e-195
1.757665375175177151503626e-197
5.508679996235577153465476e-200
1.430563366677754329011851e-202
2.955295859654741484649296e-205
4.553183032503297817958009e-208
4.650627133922343944281238e-211
2.361923379340949371490419e-214
0
0
0
0
0
0
0
0
0
0
0
0
0
0
0
0
0
0
0
0
0
0
0
0
0
0
0
0
0
0
0
0
0
0
0
0
0
0
0
0
0
0
0
0
0
0
0
0
0
0
0
0
0
0
0
0
0
0
0
0
0
0
0
0
0
0
0
0
0
0
0
0
0
0
0
0
0
0
0
0
0
0
0
0
0
0
0
0
0
0
0
0
0
0
0
0
0
0
0
0
0
0
0
0
0
0
0
0
0
0
0
0
0
0
0
0
0
0
0
0
0
0
0
0
0
0
0
0
0
0
0
0
0
0
0
0
0
0
0
0
0
0
0
0
0
0
0
0
0
0
0
0
0
0
0
0
0
0
0
0
0
0
0
0
0
0
0
0
0
0
0
0
0
0
0
0
0
0
0
0
0
0
0
0
0
0
0
0
0
0
0
0
0
0
0
0
-3.225189302455015386893616e-25
-6.143222734727600882987551e-24
-5.814550369810278434165247e-23
-3.645930352698109848841604e-22
-1.70365079786257243767457e-21
-6.327284873908881726557945e-21
-1.945380983248488373435925e-20
-5.092554018885025903292888e-20
-1.158580044454236139585874e-19
-2.326905202749472555022051e-19
-4.176908131701540538022204e-19
-6.768448130526468626944376e-19
-9.982940647399118243518355e-19
-1.349480267457271347871599e-18
-1.194304447010071546425857e-18
-1.046746647814621151747148e-18
-9.082540930199599187337178e-19
-7.799573074704317653038469e-19
-6.626556333768304083103516e-19
-5.568167567122233122676283e-19
-4.625897556192398115808309e-19
-3.798303762889741579959414e-19
-3.081365336852105824696534e-19
-2.468914846142403695323139e-19
-1.953117756628354243451012e-19
-1.524969555134838873506879e-19
-1.174781638729275698534656e-19
-8.926304737269764864785679e-20
-6.687496417835227064754817e-20
-4.938506502348825912192546e-20
-3.593651133053294280028851e-20
-2.57607430325948528460839e-20
-1.818627981253492355618892e-20
-1.264098485072305322724633e-20
-8.649014218321805248367871e-21
-5.823812603888209596722263e-21
-3.858510480800328673377152e-21
-2.514956617662716794594792e-21
-1.612418794301784845107863e-21
-1.016742617103912509138345e-21
-6.305080340707931832751236e-22
-3.844929506734456077994295e-22
-2.305614765469478487610109e-22
-1.359496725155433928221438e-22
-7.88250259406160286536518e-23
-4.49421517723494134927778e-23
-2.519781540470708258374843e-23
-1.389348616145935167946953e-23
-7.533929082326895914082826e-24
-4.018065425781722702272707e-24
-2.107751624393067528715304e-24
-1.087544747253984831868282e-24
-5.519670329755168425891622e-25
-2.755646936737741761156054e-25
-1.353244798843162390432464e-25
-6.536726658586371099483858e-26
-3.105664988195526894939693e-26
-1.451204471860979061267083e-26
-6.668716375853812522746611e-27
-3.013329241977456262542087e-27
-1.338704576206122184858536e-27
-5.846460762922300648005137e-28
-2.509586703849810751030265e-28
-1.058616675852232814421002e-28
-4.387590930899878048840809e-29
-1.786430563245257426594242e-29
-7.14397284481423969974184e-30
-2.805487447175097562169856e-30
-1.081717616487436933354576e-30
-4.094304326917064760160217e-31
-1.52101105751555142626777e-31
-5.544954240878992091328902e-32
-1.983380787411320230725456e-32
-6.959654025708203960913615e-33
-1.584733338822829600162026e-33
-3.487025392257756411840105e-34
-7.418335560275547301621431e-35
-1.526535998820628118459834e-35
-3.039677039033518830921482e-36
-5.858826474808494224008257e-37
-1.093376603977972986874589e-37
-1.975991257901016002676272e-38
-3.458590137919698176705476e-39
-5.862882726453392431603683e-40
-9.624284659872316671373417e-41
-1.529515611058992169611051e-41
-2.352174167990331846365508e-42
-3.497929172481046394214851e-43
-5.024943073142210459051292e-44
-6.9627668829414154354619e-45
-9.285862818171309553037722e-46
-1.188127673230999999294853e-46
-1.451401493087319521065057e-47
-1.679608778719960124558087e-48
-1.816726614621766471011813e-49
-1.789663846901827901363768e-50
-1.511333569576097894044313e-51
-8.871805106916579016404933e-53
1.748282566093433059506273e-54
1.751443878212430018818452e-54
3.890055862454681655152942e-55
6.595374384312206849565951e-56
9.81929125010325600162145e-57
1.345622637799930670855162e-57
1.734565534073166954444544e-58
2.128245843723463573072939e-59
2.50344087905462742895083e-60
2.836478835025675670055696e-61
3.105707540993427472175113e-62
3.293812875429647637377571e-63
3.389643508997148505349047e-64
3.389277356369347156900054e-65
3.296192301217482707431079e-66
3.120552666655399259772894e-67
2.877762848120295563968531e-68
2.586543359520081804327687e-69
2.266834817566427505085536e-70
1.937827608966244503093617e-71
1.616357338064489417726183e-72
1.315816145812580723482676e-73
1.04562925488134882250452e-74
8.112549540071300417073572e-76
6.145994697495667216879853e-77
4.547028566598310722462523e-78
3.285475768918037051165361e-79
2.318613907101488879481389e-80
1.598209675952143640063991e-81
1.076023289545351771653346e-82
7.076070804508602911481143e-84
4.545046499733751211176177e-85
2.851325410931466553819889e-86
1.74702086595175890543605e-87
1.045362840761261550648774e-88
6.108336978617836040921945e-90
3.485217551394237659305734e-91
1.941541399231000850531743e-92
1.055910616541440796937173e-93
5.605577532443543786631016e-95
2.904493398473805583584615e-96
1.468644022403414510211859e-97
7.245915884911684023569505e-99
3.487628954982188665739711e-100
1.63739048032474315773361e-101
7.496854052686237744271771e-103
3.346766592694236400123241e-104
1.456468096745179093714739e-105
6.177461129515284244919835e-107
2.55300354765795151756959e-108
1.027823123814405176711581e-109
4.029937286447917873274082e-111
1.538411136975098929512981e-112
5.716309160782665124565407e-114
2.066790606713480737843678e-115
7.269023653517694822839611e-117
2.486042624005426147526881e-118
8.264951414223013263531483e-120
2.66998934800491235045486e-121
8.378106978517013606124259e-123
2.552524893618508686001764e-124
7.547318662934852891579382e-126
2.164784308254043131044279e-127
6.020401962238882997202958e-129
1.622569187146254377849437e-130
4.23558374784321174036115e-132
1.070305182072679758457125e-133
2.61651863467152336024318e-135
6.184204746104033374921299e-137
1.412189163284970457801202e-138
3.113420954623452802030286e-140
6.621951459389121864848265e-142
1.357635136162110945498203e-143
2.680719638380397823889175e-145
5.093164155468543670807931e-147
9.301660729601140747052471e-149
1.631201137791245699875314e-150
2.743672276058238508900281e-152
4.420794214272223830500215e-154
6.814519691936152193035209e-156
1.003491288212281520768468e-157
1.409480692810277166698644e-159
1.885107564631429583184838e-161
2.396302180570687091937016e-163
2.889320486110286837427571e-165
3.297090514941209752501583e-167
3.552040951545620427166655e-169
3.60288243943446330240875e-171
3.430222859829336304749222e-173
3.054968244796405205461344e-175
2.535248519092352822913164e-177
1.951849280367466525262865e-179
1.387008699794724334842151e-181
9.043954099015433926085636e-184
5.373702643419284303985935e-186
2.885605909743289160773709e-188
1.386435354990479534087795e-190
5.886838739899582011510302e-193
2.174506293009275304954692e-195
6.845350857552394598663597e-198
1.785533364098434839166289e-200
3.704790411957704427083521e-203
5.732826541593168158225325e-206
5.880923498178753091306878e-209
2.999642691763058970608448e-212
0
0
0
0
0
0
0
0
0
0
0
0
0
0
0
0
0
0
0
0
0
0
0
0
0
0
0
0
0
0
0
0
0
0
0
0
0
0
0
0
0
0
0
0
0
0
0
0
0
0
0
0
0
0
0
0
0
0
0
0
0
0
0
0
0
0
0
0
0
0
0
0
0
0
0
0
0
0
0
0
0
0
0
0
0
0
0
0
0
0
0
0
0
0
0
0
0
0
0
0
0
0
0
0
0
0
0
0
0
0
0
0
0
0
0
0
0
0
0
0
0
0
0
0
0
0
0
0
0
0
0
0
0
0
0
0
0
0
0
0
0
0
0
0
0
0
0
0
0
0
0
0
0
0
0
0
0
0
0
0
0
0
0
0
0
0
0
0
0
0
0
0
0
0
0
0
0
0
0
0
0
0
0
0
0
0
0
0
0
0
0
0
0
0
0
0
-4.254981640051365259089273e-27
-3.170035571624679594897748e-24
-5.927805777479956911955566e-23
-5.553100915053169977764508e-22
-3.452254803639090077481601e-21
-1.600053365788549101164098e-20
-5.894076244704018891376533e-20
-1.796955897069160714962459e-19
-4.662678648650016311479303e-19
-1.050960094031295177774494e-18
-2.090092284743035179507642e-18
-3.712954853299379124399265e-18
-5.950877962777590104323976e-18
-8.676347254026974159153839e-18
-1.158806914535337387285865e-17
-1.046867780096336970220683e-17
-9.355059808224037322175499e-18
-8.267035126694596476057575e-18
-7.22223751409818406758955e-18
-6.23561211251680987023924e-18
-5.319062936751810461206217e-18
-4.481264538251204880202421e-18
-3.727640662774439308515072e-18
-3.060501133912105654193875e-18
-2.479317551225601067839402e-18
-1.981109691529210674768521e-18
-1.560908546357216578043116e-18
-1.212259214484680621308366e-18
-9.277275185290865145951573e-19
-6.993779622507604982170561e-19
-5.191968747811910385036638e-19
-3.794424301559905061414004e-19
-2.729116934961733241811499e-19
-1.931229605552954990524201e-19
-1.344186125948032875734244e-19
-9.199894329292209130684778e-20
-6.190066590846372956893017e-20
-4.093510405497947631495499e-20
-2.660067155439957963498277e-20
-1.698257433957595501748212e-20
-1.065020336870431947699866e-20
-6.559898225172135167397583e-21
-3.968035292303511193223459e-21
-2.357009439662610610472968e-21
-1.374791611315248812784492e-21
-7.874065331951786334946593e-22
-4.428522974545452809064627e-22
-2.445915954929831182337461e-22
-1.326736951379225189050009e-22
-7.068680186297983276972791e-23
-3.699657180628571275217603e-23
-1.902485943772446963006995e-23
-9.613703150150231389620824e-24
-4.774679324879998069058541e-24
-2.331076457519164845576082e-24
-1.118919369000627050045708e-24
-5.281239620342307273307426e-25
-2.451453174159347855502091e-25
-1.119196861687493056897016e-25
-5.02592290487887138447977e-26
-2.220078961350022897430851e-26
-9.646413723696851937161831e-27
-4.122821495319075996473919e-27
-1.733109026024288654534991e-27
-7.165023921504826679092418e-28
-2.912829546435267747383751e-28
-1.164267084220100954770996e-28
-4.574627466043036164311618e-29
-1.766618052837283221575229e-29
-6.703879776436746082611753e-30
-2.499282451264570941743868e-30
-9.15201010745857316341298e-31
-3.29105207141462434476125e-31
-1.161915812670737656437019e-31
-4.026620853453964218236638e-32
-8.937645446693868492614711e-33
-1.919514699744482040781786e-33
-3.990110398610553916981278e-34
-8.030154689360355386084083e-35
-1.564977808514594554206109e-35
-2.954025134653141672825572e-36
-5.401215116187256981704997e-37
-9.566605526264889790477198e-38
-1.641318959567274042375603e-38
-2.727278867490170389014046e-39
-4.387745091072770210035037e-40
-6.831667278826195299565512e-41
-1.028688670974956482676504e-41
-1.496498270517095403692308e-42
-2.10027748738576213261112e-43
-2.837799942023628517119317e-44
-3.680153672795015976512692e-45
-4.559564891295873310254285e-46
-5.357617447837743608387729e-47
-5.896484993994963085631072e-48
-5.936348543878266956004819e-49
-5.182192819659712346037097e-50
-3.302436324348215435221554e-51
3.974044109084575829714116e-54
5.143833502527639995697397e-53
1.222240068775008391488445e-53
2.13511147500557247887652e-54
3.242691234667436477828481e-55
4.514294311492231366555575e-56
5.898751676700336147913058e-57
7.327099318527190992438934e-58
8.718003818197266417546535e-59
9.985372771614594257422079e-60
1.10471670438985560311753e-60
1.183416154802276350153179e-61
1.229735844675259015023696e-62
1.241295778293494609981925e-63
1.218419646171832447173202e-64
1.16398920551721987942262e-65
1.083006324019955847771445e-66
9.819436582451467855846355e-68
8.679910491569757358874653e-69
7.483096535426018738893586e-70
6.293909300618618273586891e-71
5.165881918701207829276307e-72
4.138521248001930577988491e-73
3.236662913420468568847584e-74
2.471505047982863386261326e-75
1.842827398588019218556026e-76
1.341847108470573679103273e-77
9.542070941195249316353992e-79
6.627052765402733210773825e-80
4.495159461514315010773504e-81
2.977952779652790945110519e-82
1.92678248536059825681446e-83
1.21752355541810168714029e-84
7.513345105882545790926978e-86
4.527685496873305062803474e-87
2.664257698162835451923373e-88
1.530728052232143581853192e-89
8.586205691809042078584027e-91
4.701544263505247539304128e-92
2.512843120099226072790765e-93
1.310752083434330821221256e-94
6.671845034293662690393634e-96
3.313420794125449700367952e-97
1.605249932333465609183016e-98
7.585241646134572366902093e-100
3.495241377183289602231898e-101
1.570294654675030077092316e-102
6.876879573937450252827739e-104
2.935031198409756523938574e-105
1.220518420632914864025302e-106
4.944016270976357887847494e-108
1.950325692424365114894056e-109
7.490447345835541470643482e-111
2.799993619144951913656451e-112
1.018412369360937896341698e-113
3.603042033474624631097742e-115
1.239505384438666807585972e-116
4.144838538019284575084244e-118
1.34674535289361274299602e-119
4.25022564901540697460359e-121
1.30229083407450972792879e-122
3.872439723386097908352193e-124
1.11697368886093524209767e-125
3.123724737021400871677097e-127
8.465494617427295823070134e-129
2.22201701008936278253865e-130
5.645600268174819681191458e-132
1.38764496044846284066744e-133
3.297420283119595821967783e-135
7.570130165538913073324738e-137
1.677848261096693183063939e-138
3.587482196884121879968465e-140
7.393677889738143256235948e-142
1.46753182837622223867104e-143
2.802642264351917044021516e-145
5.144814602472476341409558e-147
9.068418737833768657848034e-149
1.533051917539504639913735e-150
2.482626862415145702664329e-152
3.846086512312483449844968e-154
5.691888043896804319933389e-156
8.034285968489792245025324e-158
1.079832352095339639215956e-159
1.379369501778740791495245e-161
1.671246618250381591864831e-163
1.916322444886963349697524e-165
2.074415863280617240938458e-167
2.114148527073699258352335e-169
2.022380285092747116340413e-171
1.809630667091796628424819e-173
1.508809323811419218934968e-175
1.167020860997485767436754e-177
8.331402522563768047150416e-180
5.457478979743445459259934e-182
3.257545291755305165545895e-184
1.75721701187033534121288e-186
8.481020406556239510765132e-189
3.617257233641713456291755e-191
1.342132745953023961408627e-193
4.243819962387811900589538e-196
1.111845989172113215028104e-198
2.317100262245825920982271e-201
3.601170591356922031793463e-204
3.71025214063361425130052e-207
1.900639743355828025121423e-210
0
0
0
0
0
0
0
0
0
0
0
0
0
0
0
0
0
0
0
0
0
0
0
0
0
0
0
0
0
0
0
0
0
0
0
0
0
0
0
0
0
0
0
0
0
0
0
0
0
0
0
0
0
0
0
0
0
0
0
0
0
0
0
0
0
0
0
0
0
0
0
0
0
0
0
0
0
0
0
0
0
0
0
0
0
0
0
0
0
0
0
0
0
0
0
0
0
0
0
0
0
0
0
0
0
0
0
0
0
0
0
0
0
0
0
0
0
0
0
0
0
0
0
0
0
0
0
0
0
0
0
0
0
0
0
0
0
0
0
0
0
0
0
0
0
0
0
0
0
0
0
0
0
0
0
0
0
0
0
0
0
0
0
0
0
0
0
0
0
0
0
0
0
0
0
0
0
0
0
0
0
0
0
0
0
0
0
0
0
0
0
0
0
0
0
0
0
-4.17373627488211805117816e-26
-1.550186650627171164931826e-23
-2.84481939519246083225085e-22
-2.636925786791585061581497e-21
-1.625044730909585000525339e-20
-7.469922892550002117785658e-20
-2.729160986518074156248982e-19
-8.250760639379780479736922e-19
-2.122183865006088878782884e-18
-4.739412114450963746919011e-18
-9.333798920164722688578565e-18
-1.64161674939273705274082e-17
-2.608362263318066972580087e-17
-3.788651854162440323536416e-17
-5.094671946518239363097448e-17
-4.732774445003144130171232e-17
-4.349706902560590801355293e-17
-3.95522540684855229734471e-17
-3.558636105122622919780344e-17
-3.168405122751882188700301e-17
-2.791841740617809241336125e-17
-2.434878236492487665661162e-17
-2.101961545798832153598355e-17
-1.79606078690924976166698e-17
-1.518781584022347754439879e-17
-1.270564739185309745948862e-17
-1.050935751298861526764215e-17
-8.587659146091945312320087e-18
-6.925075585624991676303294e-18
-5.503758737246164935386026e-18
-4.304655830937582947091905e-18
-3.308080731558526584412236e-18
-2.493882890957543654295507e-18
-1.841467370433846710783457e-18
-1.329891773024213928107275e-18
-9.381710532296611228242725e-19
-6.45801338466323414062054e-19
-4.334140718076777727648471e-19
-2.834218422257890417883801e-19
-1.805233839708790744291752e-19
-1.119826358027627996721551e-19
-6.766024298356423445450529e-20
-3.983169349559722410952262e-20
-2.286004354878517057059594e-20
-1.279993509254518505211201e-20
-6.998930214694965539858248e-21
-3.741371110315162621209982e-21
-1.957693394069021906746929e-21
-1.004042572945389099651024e-21
-5.054154491941778517211279e-22
-2.500456849881781269598327e-22
-1.217340848899389365076286e-22
-5.838609167311425843010162e-23
-2.76124969467827830062835e-23
-1.288525566210988420482469e-23
-5.935475402542327605827256e-24
-2.699440291917125027721006e-24
-1.212098474906821811192566e-24
-5.372374763992337990266256e-25
-2.349772185617392641758412e-25
-1.013797698029597052059455e-25
-4.312832316561665177018058e-26
-1.808323401325806016497043e-26
-7.469873794333988609898253e-27
-3.038816959587742176325436e-27
-1.217001138219770759464344e-27
-4.796493219522924110112151e-28
-1.859786772972542758162351e-28
-7.092120238334136356826962e-29
-2.659103141613315891370136e-29
-9.799794045652977353797063e-30
-3.548957383319136218852682e-30
-1.262607004705328407099549e-30
-4.41166212658816373818629e-31
-1.513516450503305258890499e-31
-3.28359967717912702181171e-32
-6.898710975654272501038746e-33
-1.403848090237164797801627e-33
-2.767393187911221626844595e-34
-5.285255356645795030699818e-35
-9.779778598718291125440028e-36
-1.753300815240184948748965e-36
-3.04516562140472514299766e-37
-5.122863047958481865387398e-38
-8.34503080127845644922122e-39
-1.31568502530492796440996e-39
-2.006255550334928330000485e-40
-2.956000184824664338602322e-41
-4.202428622496407841044447e-42
-5.753155809282861705474683e-43
-7.562349010373389321572943e-44
-9.502777952461533059377805e-45
-1.133693535279963257200538e-45
-1.269274784368845227151675e-46
-1.305105819937020645385313e-47
-1.175269278240884207207892e-48
-8.031925572721529107502091e-50
-1.080135085073280299919516e-51
9.86152115398018722936148e-52
2.538789856432854241496273e-52
4.580807950906884041087274e-53
7.103505813687325787424199e-54
1.005081016639000419272594e-54
1.3316707711854643348719e-55
1.67491728281862511768916e-56
2.016089338166803073189474e-57
2.334591232489806355219083e-58
2.610016927787138279424591e-59
2.824309722453379366612535e-60
2.963710311339899434539159e-61
3.020202802806852905385204e-62
2.992249882974524317597037e-63
2.884727962084059863590677e-64
2.708105597881825872073696e-65
2.477026598338636716747418e-66
2.208540417207744603929971e-67
1.920253866304235482054366e-68
1.628658699361480733973803e-69
1.347829042194015126612362e-70
1.088598021114590495969623e-71
8.582337829166299951733663e-73
6.605586254794299080226561e-74
4.96402708761770145945238e-75
3.642602221655591658065874e-76
2.610187835010111564368346e-77
1.826554126845573337736891e-78
1.24825725999436551067287e-79
8.330839238295334573808293e-81
5.429773925822527966132732e-82
3.455983946525279723455593e-83
2.148033679060765059022874e-84
1.30366619647422308854581e-85
7.725357912863726162518914e-87
4.469544324014605700954956e-88
2.524414432035324506765667e-89
1.391765534036874094169998e-90
7.48910268031506268805478e-92
3.93275714799583814472262e-93
2.015155580754838332858886e-94
1.007394893569423825120065e-95
4.91248611128733925009222e-97
2.336356658271614608774123e-98
1.083512576664801477010123e-99
4.898932951606447125392012e-101
2.158998185587348429577858e-102
9.272385792258917410644639e-104
3.879884934799321025387359e-105