# geometry NO_DATA 448
#  x  y  z
4.142385385395224162152772 0.01379016812339870987069723 2.021404782728173366024294
4.134770770790450633569435 -0.01666666666666664214924154 2.02428046945692496905167
4.142385385395224162152772 -0.01954316520993462300004317 2.021404782728173366024294
4.123985912670911524458006 -0.004903049572412167614321454 2.034770770790450988840803
4.120815669156145943929914 -0.02300715369619640154885687 2.042385385395225405602559
4.120815669156145943929914 0.01320105455137204376880877 2.042385385395225405602559
4.135472141849310112604599 -0.03477077079045087781850043 2.024981840515784448086833
4.12468728372977100349317 -0.03477077079045087781850043 2.035472141849310467875966
4.12468728372977100349317 0.03477077079045090557407605 2.035472141849310467875966
4.135472141849310112604599 0.03477077079045090557407605 2.024981840515784448086833
4.192991136254018869067295 -0.002992626813136452235131202 2.013845883672744641046393
4.19649556812700907926228 0.02333184277421710209332595 2.017178471726519983775461
4.19649556812700907926228 -0.02931709640049000656358835 2.017178471726519983775461
4.172583073437156286900063 -0.03659960113003920406660185 2.012925270516470632742312
4.186053972541833090303953 -0.04299113625402022076382735 2.016566522881244605258644
4.159420838643479001461856 -0.04360846487601899301722597 2.015597203976621010212966
4.159420838643479001461856 0.04360846487601899301722597 2.015597203976621010212966
4.172583073437156286900063 0.03659960113003921100549576 2.012925270516470188653102
4.186053972541832202125534 0.04299113625402022076382735 2.016566522881245049347854
4.179520237149343842020244 -0.01027513154268565667703861 2.010204631307970224440851
4.169553769917656360632918 0.009657802920686882688916519 2.009895966996970706475167
4.156391535123979963373131 -0.004313936000385525798561659 2.012567900457121528035032
4.15319576756198927114383 0.0226278622089667938444002 2.015548498228271423471369
4.15319576756198927114383 -0.03125573420973784544152352 2.015548498228271867560579
4.229914943574595298514396 -0.01429636139319289192539664 2.044211304967788578323962
4.223640514335613715957152 0.007459581875718346646864099 2.038422609935577778372817
4.229914943574595298514396 0.02921552514462958521912483 2.044211304967788578323962
4.217851819303402471916797 -0.03842260993557790327290746 2.034381658227887079704033
4.217851819303402471916797 0.03842260993557790327290746 2.034381658227887079704033
4.205788695032209645319199 0.01876331645577479154129996 2.024552011487985581084104
4.211577390064420889359553 -0.002992626813136450500407726 2.028592963195676279752888
4.205788695032209645319199 -0.02474857008204769254211541 2.024552011487985581084104
4.098358204465320397957839 0.0337870989354114165115206 2.085428894470090721569022
4.096716408930640263008627 -0.01666666666666666990481716 2.090251753933025646858823
4.098358204465320397957839 0.0004537656020780882486394259 2.085428894470090721569022
4.093410489952835185079039 0.01005482871105603526196148 2.096716408930640263008627
4.091746366509710242098663 -0.01999491355291811364724985 2.098358204465319953868629
4.091746366509709353920243 0.04010457097503018764061977 2.098358204465319953868629
4.095713940308270295531656 -0.04671640893064081534458154 2.089249285310655679381853
4.092408021330465217602068 -0.04671640893064082922236935 2.095713940308270295531656
4.092408021330465217602068 0.04671640893064080840568764 2.095713940308269851442446
4.095713940308270295531656 0.04671640893064080840568764 2.089249285310655679381853
4.112437795667409190514263 -0.04485657600196880923082432 2.056555987120281869806604
4.10655598712028169217092 -0.04485657600196880923082432 2.066757998789333417022362
4.10655598712028169217092 0.04485657600196880923082432 2.066757998789333861111572
4.112437795667408302335843 0.04485657600196880923082432 2.056555987120281869806604
4.114335329093269599809446 -0.03309295890771433296118076 2.052571711999015224847653
4.11102523254515794803865 -0.004903049572412193635173594 2.055143423998031071420201
4.114335329093269599809446 0.02328685976288994569083357 2.052571711999015224847653
4.105143423998031337873726 0.003737356671437271071756214 2.065345435667082618635959
4.102571711999015491301179 0.03192726600673941039776338 2.07297573533711920745759
4.102571711999015491301179 -0.02445255266386486825425095 2.07297573533711920745759
4.246674356350806256443775 -0.007693391350211247099732947 2.057812281307420221310167
4.248337178175402684132678 0.02231429833392941167180545 2.06063609714105133718931
4.248337178175402684132678 -0.03770108103435190760599482 2.06063609714105133718931
4.243733635779928903275504 -0.04667435635080732780899382 2.056149459482823793621264
4.243733635779928903275504 0.04667435635080733474788772 2.056149459482823349532055
4.242070813955331587408182 -0.0166666666666666594964763 2.053325643649192233652911
4.239130093384454234239911 0.004133938226525682088641211 2.051662821824595805964009
4.239130093384454234239911 0.03746727155985901669410509 2.051662821824595805964009
4.276368648239081693418484 -0.01892060503876348206975244 2.095289253277845098466514
4.270250444202772222013209 0.004991234850260943024802263 2.090578506555690552204396
4.276368648239081693418484 0.0289030747392853872013152 2.095289253277845098466514
4.265539697480617675751091 -0.04057850655569110454035098 2.083109224269406034579788
4.265539697480617675751091 0.04057850655569109066256317 2.083109224269406034579788
4.254710746722153658083698 0.01621844853881317452537481 2.070929195260966970693062
4.259421493444308204345816 -0.007693391350211268783776397 2.07839847754725148831767
4.254710746722153658083698 -0.03160523123923568433735198 2.070929195260966970693062
4.082732249060826212883057 0.002643727267498304119019981 2.119911478206671695545538
4.080848919981036715398659 -0.006410385427076917448652171 2.124438534553959812001267
4.075555486553376738356747 -0.004176481428243604757111207 2.135977060600831478609507
4.072145382205505370620813 -0.02348687536240858311775703 2.142988530300415028762018
4.072145382205505370620813 0.01513391250592139615493981 2.142988530300415472851228
4.080349672022707707697009 -0.02572077936124190014610669 2.123939286595630804299617
4.084055222744487068098351 -0.03974371876041023210479608 2.114284089628548635175775
4.075056238595046842476677 -0.03597706060083166734742122 2.135477812642502470907857
4.075056238595047730655097 0.0359770606008316465307395 2.135477812642502470907857
4.084554470702815187621582 0.02572077936124186892108412 2.114783337586876754699006
4.082171893664697570613953 0.0359770606008316465307395 2.118811145975835863453085
4.08643779978260468510598 -0.01666666666666667684371106 2.110256281239589526421696
4.088260021424594548022924 -0.0002014525285337423476939023 2.105128140619794585575164
4.088260021424594548022924 0.0331318808047995905230465 2.105128140619794585575164
4.295280995454145767098453 -0.00457353558051305612852655 2.110765570088931397663146
4.297640497727072350642175 0.02404079320696581034688677 2.114452633359080291342025
4.297640497727072350642175 -0.03318786436799192607338682 2.114452633359080735431235
4.291802781818869760854795 -0.04528099545414553117606005 2.108406067816003925941004
4.291802781818869760854795 0.04528099545414554505384785 2.108406067816003481851794
4.289443279545942289132654 -0.01666666666666666990481716 2.104719004545854144083705
4.285965065910666282888997 0.0002722303044064959824839545 2.102359502272927116450774
4.285965065910666282888997 0.03360556363773982424536513 2.102359502272926672361564
4.325462198618289733076381 -0.02022966869502339573583249 2.14569186731331296158487
4.319193298339174980071675 0.004487399264936560092098539 2.141383734626626456076792
4.325462198618289733076381 0.02920446722489650204224176 2.14569186731331296158487
4.314885165652487586385178 -0.04138373462662661705913081 2.135071766189723163620329
4.314885165652487586385178 0.04138373462662662399802471 2.135071766189723163620329
4.304308132686686327872394 0.02014353237944690316885143 2.124451665066133365655787
4.308616265373372833380472 -0.004573535580513040516015266 2.130763633503036658112251
4.304308132686686327872394 -0.02929060354047300501756368 2.124451665066133365655787
4.049262048942492420167127 0.0423371703918391240062391 2.193075121449346909230371
4.048524097884984129791519 -0.01666666666666666990481716 2.195430634138411107869615
4.049262048942492420167127 0.009003837058505794604945649 2.193075121449347353319581
4.046990333790498439725525 0.01359913847769611897065012 2.198524097884983152795257
4.046194520753521928213559 -0.01825829274062061580163885 2.199262048942490999081656
4.046194520753521928213559 0.04545656969601286068183299 2.199262048942490999081656
4.047993617327838578034971 -0.04852409788498340814655307 2.194900153581265556113067
4.046459853233352887968977 -0.04852409788498340814655307 2.197993617327837601038709
4.046459853233352887968977 0.04852409788498339426876527 2.197993617327837601038709
4.047993617327838578034971 0.04852409788498339426876527 2.194900153581265556113067
4.064382216803108960334612 -0.04335415372292950736410333 2.158137124183896915496916
4.058137124183898158946704 -0.04335415372292950736410333 2.171710327103991922115256
4.058137124183898158946704 0.04335415372292951430299723 2.171710327103991922115256
4.064382216803109848513031 0.04335415372292951430299723 2.158137124183896915496916
4.065813108376957529799256 -0.0308639684845064266038861 2.153322923138534683573653
4.062890938896281944892053 -0.004176481428243572664726901 2.156645846277069900054357
4.065813108376957529799256 0.02251100562801927607026187 2.153322923138534683573653
4.056645846277071143504145 0.01047973917352240137701447 2.170219049197164018494277
4.05332292313853592702344 0.03716722622978524404047107 2.180469328978723808631912
4.05332292313853592702344 -0.01620774788274045169478299 2.180469328978723808631912
4.345293613770524032702269 -0.00467251924978905573693222 2.160703459937914239219481
4.347646806885261838715451 0.0239544278540685558198664 2.164347340531615149217259
4.347646806885261838715451 -0.03329946635364666729373084 2.164347340531615149217259
4.341557173184396489773462 -0.0452936137705242727879984 2.158350266823176433206299
4.341557173184396489773462 0.04529361377052426584910449 2.158350266823176433206299
4.339203980069658683760281 -0.01666666666666666990481716 2.154706386229475079119311
4.335467539483531140831474 -0.000218986964539175099631052 2.15235319311473727310613
4.335467539483531140831474 0.03311434636879415083221545 2.15235319311473727310613
4.375897088188138717157472 -0.01955967679928665575728175 2.1954567649874245915953
4.369763396612931671825208 0.004687186508896737553719891 2.190913529974849893733335
4.375897088188138717157472 0.02893404981708014300778586 2.1954567649874245915953
4.365220161600356085784824 -0.04091352997485007275679791 2.184787172029196700151488
4.365220161600356973963244 0.0409135299748500519401162 2.184787172029196700151488
4.354543235012574342590597 0.01957434405839433844143116 2.174117579070968808707676
4.359086470025149040452561 -0.004672519249789067879996551 2.180243937016622002289523
4.354543235012574342590597 -0.0289193825579724568541895 2.174117579070968808707676
4.040753647816649696267177 0.005746277461458109726832877 2.214992629644808364020037
4.0371865320044193481408 -0.01288050908592029003552071 2.224306022918497660612047
4.030353494162342897766393 -0.0007855665982303740042108631 2.239079610794791452832442
4.027087572132498571875203 -0.02319851072635516556208479 2.244539805397395504371616
4.027087572132498571875203 0.02162737752989442666096132 2.244539805397395504371616
4.036048893184545960366449 -0.03529345321404507573870291 2.223168384098625161016116
4.039975323692665654107259 -0.04621384241925361596736721 2.211961912034562161011308
4.029215855342470398170462 -0.03907961079479146948578716 2.237941971974918509147301
4.029215855342470398170462 0.03907961079479145560799935 2.237941971974918509147301
4.04111296251253726552477 0.03529345321404505492202119 2.213099550854435548785659
4.036408207880434417802462 0.03907961079479145560799935 2.221275305308251901692529
4.044680078324768501829567 -0.01666666666666667684371106 2.203786157580745808104439
4.04503939302065695926558 0.009812980896949728693012815 2.201893078790372548780852
4.04503939302065695926558 0.04314631423028304768596541 2.201893078790372548780852
4.395268833546742470730351 -0.001467534594107422485365078 2.212330732489537155061043
4.397634416773371413000859 0.02713463228596798074154783 2.217564715299187749764087
4.397634416773371413000859 -0.03006970147418282918172494 2.217564715299187305674877
4.391644676694486548740315 -0.04526883354674207660117702 2.209965149262908212790535
4.391644676694486548740315 0.04526883354674207660117702 2.209965149262908656879745
4.389279093467857606469806 -0.01666666666666666990481716 2.204731166453257618087491
4.38565493661560168447977 -4.397994436118023164634244e-05 2.202365583226628675816983
4.38565493661560168447977 0.03328935338897216072995278 2.202365583226628675816983
4.416142490596249636780612 -0.03033490023308423391701361 2.246477390829334730426581
4.413355159054122012207699 -0.004046785241081031665733025 2.242954781658669904942371
4.416142490596249636780612 0.02224132975092216885082408 2.246477390829334730426581
4.4098325498834576308127 -0.04295478165866987302345947 2.237410290198947215856151
4.4098325498834576308127 0.04295478165866986608456557 2.237410290198947659945361
4.403522609170664736666367 0.02482058039789577369438334 2.228343189568560589464141
4.407045218341330006239787 -0.001467534594107427039014202 2.233887681028282390371942
4.403522609170664736666367 -0.0277556495861106325429013 2.228343189568560589464141
4.00008261212450033639243 -0.04989024220492747213606677 2.299972854329427995878632
4.000082024568108352013951 -0.016611200212737983056277 2.299945708658856169392948
4.000082612124501224570849 0.01666784177945148520683105 2.299972854329427995878632
4.018160948008649313578644 -0.04136457745519434708869611 2.260220397974431527643446
4.01024754364500335412913 -0.0413102861140504790116168 2.276859918970526308612534
4.005957565599564951241973 -0.04994570865885614163737216 2.289208874364789814137566
4.01024754364500424230755 0.04131028611405051370608632 2.276859918970526308612534
4.005957565599565839420393 0.04994570865885616939294778 2.289208874364790258226776
4.018160948008650201757064 0.04136457745519436790537782 2.260220397974431527643446
4.020198811340838673800135 -0.02548347738675803969554678 2.25431771127240265784053
4.016575972579023989794678 -0.0007855665982303486338800269 2.25863542254480531568106
4.020198811340838673800135 0.02391234419029732854999892 2.25431771127240265784053
4.008662568215378030345164 0.01661237532552283652220737 2.275274943540900096650148
4.004372002613546754901108 -0.008031244121860989931827035 2.287596753264592219778706
4.429679229507329729642606 0.003619641818675281043360403 2.273940412311343806095465
4.430054346117669794580252 -0.002869408597993615937793432 2.277184937519677987438627
4.429600008427209800743185 0.001960733217071296795308566 2.286952975152008349368771
4.428770554126408853790053 -0.01832557526827065241814552 2.293476487576004529955753
4.428770554126408853790053 0.02224704170241325121293308 2.293476487576004529955753
4.427383727395918455727042 -0.02315571708333556688597099 2.274514318797925760406997
4.423550513866040034827165 -0.03620274193132694967589558 2.264371164555254445360788
4.426929389705457573711556 -0.03695297515200861998563298 2.284282356430255678247931
4.426929389705457573711556 0.03695297515200861304673907 2.284282356430256122337141
4.426221132587792261858795 0.02315571708333555994707709 2.267041783277007116481627
4.42392563047638098794323 0.03695297515200860610784517 2.26761568976358862670395
4.425846015977452196921149 -0.0166666666666666664353702 2.263797258068672935138466
4.422387919057914729137337 -0.01784404330975408042858632 2.256898629034336245524628
4.422387919057914729137337 0.01548929002357924897270713 2.256898629034336245524628
3.995129919354666547803845 0.007016995853212543848842486 2.311887076498545301461718
3.9902598387093335396969 -0.01666666666666666990481716 2.323638417281272516845547
3.995129919354666547803845 -0.02631633748012079249134487 2.311887076498545301461718
3.981200193847499235744181 -0.001452623057002782160432308 2.340259838709333628514742
3.977010629630997939898407 -0.02504579509966984099400555 2.345129919354667080710897
3.977010629630997939898407 0.02214054898566427537209833 2.345129919354666636621687
3.988809567470462447147384 -0.04025983870933372288369867 2.322188146042401868385241
3.979749922608628143194665 -0.04025983870933372288369867 2.338809567470462091876016
3.979749922608627699105455 0.04025983870933372288369867 2.338809567470462091876016
3.988809567470462447147384 0.04025983870933372982259257 2.322188146042401868385241
4.000063927812940178796453 -0.04997487774197827137268035 2.300036194585976190296606
4.00003619458597547975387 -0.04997487774197827137268035 2.300081439824582574260603
4.00003619458597547975387 0.04997487774197827137268035 2.300081439824582574260603
4.000063927812940178796453 0.04997487774197827137268035 2.300036194585976190296606
4.000068027582939222952518 -0.04991941128804960881026886 2.300012561129010979499299
4.000052855484985236955708 -0.01661120021273799346461786 2.300025122258021692545071
4.000068027582939222952518 0.01669701086257360800324534 2.300012561129010979499299
4.000025122258021426091545 -0.01657617618945450913003903 2.300070367496627632419859
4.000012561129009824867353 0.01673203488585709580727112 2.300103051606223303338083
4.000012561129009824867353 -0.04988438726476612794513699 2.300103051606222859248874
4.426615915814586799115204 0.0008695300246486677413909616 2.324253614210061158473763
4.426460105425779723020696 -0.001181150802262930735869739 2.32527895462351708033566
4.423902935766981237009077 -0.003933188515334788519506315 2.334202863357981883041248
4.421501576496989827091966 -0.02146938520665012464783139 2.34210143167899076388494
4.421501576496988938913546 0.01360300817598054934354224 2.34210143167899076388494
4.425651289236251173520031 -0.01871734749357826729787568 2.324470138433988530834995
4.426196890832462926823609 -0.0345144841355962683770997 2.315702040088331692402335
4.423094119577452687508412 -0.03420286335798200516578049 2.333394047168453333540583
4.423094119577452687508412 0.03420286335798200516578049 2.333394047168453333540583
4.427005707021990588145854 0.01871734749357826729787568 2.31651085627785935372458
4.426041080443656738907521 0.03420286335798200516578049 2.316727380501787170175021
4.427161517410798552418782 -0.01666666666666666990481716 2.315485515864403431862684
4.427551308618202341449432 -0.01352478264733244540940493 2.30774275793220207120271
4.427551308618202341449432 0.01980855068600089613495285 2.30774275793220207120271
3.961399510701073545249074 -0.0358688505335230251036549 2.397268361234596856235157
3.959797213498642776130509 -0.007998794730996615712226294 2.394536722469193357198947
3.961399510701073545249074 0.01987126107152979367920231 2.397268361234596856235157
3.967899677877948949600295 -0.04225077659278238251250315 2.36029265607311700136961
3.963024294838519701045243 -0.03678749906197545382902092 2.374227683974380109788171
3.96348361910274649133612 -0.04453672246919308103096924 2.387019738937437907111416
3.963024294838520589223663 0.03678749906197545382902092 2.374227683974379665698962
3.96348361910274649133612 0.04453672246919307409207534 2.387019738937437907111416
3.967899677877948505511085 0.04225077659278238251250315 2.3602926560731165572804
3.969088655313273150682107 -0.02703673298311850062281003 2.353874611703608898949369
3.965356245212050101400791 -0.001452623057002779775187529 2.357749223407217264991687
3.969088655313273594771317 0.02413148686911294193979671 2.353874611703608454860159
3.960480862172621741024159 0.01120338913585974122133493 2.371684251308480817499458
3.959337889234415985839632 -0.008917443259449053111209693 2.381744667506135559875702
4.399624601122081202220215 0.04589774220200719401230316 2.396273141079924506868792
4.399249202244163825525902 -0.01666666666666667337426411 2.397573472223085477850191
4.399624601122081202220215 0.01256440886867386114156275 2.396273141079924506868792
4.398444491276529255685546 0.01505724473139917647668273 2.399249202244164269615112
4.398015179186813838896342 -0.01752529084609853043952299 2.399624601122082090398635
4.398015179186813838896342 0.0476397803088968799234415 2.399624601122082090398635
4.398965453530395031123135 -0.04924920224416438202519331 2.397289723509317571625843
4.398160742562762237639618 -0.04924920224416438202519331 2.398965453530395919301554
4.398160742562761349461198 0.04924920224416436120851159 2.398965453530395919301554
4.398965453530395031123135 0.0492492022441643750862994 2.397289723509317571625843
4.415193589916319716337512 -0.04242352453717197768856551 2.358826850840654021368437
4.408826850840653399643543 -0.04242352453717199156635331 2.373817787486242281147497
4.408826850840654287821962 0.04242352453717199850524722 2.373817787486242281147497
4.415193589916320604515931 0.04242352453717199850524722 2.358826850840654465457646
4.416521715882745446890567 -0.02969004638584010757895726 2.353788237731413879316733
4.413943214538493364784699 -0.003933188515334772039633293 2.357576475462828113904834
4.416521715882745446890567 0.02182366935517054268300896 2.353788237731413879316733
4.40757647546282704809073 0.01331520662450950617805567 2.372567412108416373683895
4.403788237731412813502629 0.03907206449501482437014488 2.383770111022590398874854
4.403788237731412813502629 -0.01244165124599582589182134 2.383770111022590398874854
3.976642421531579874027784 -0.01787530285046780298419122 2.444517724382047507702964
3.971544624192719030730814 0.004493479246960496199803092 2.439035448764094837770244
3.976642421531579874027784 0.02686226134438879711852088 2.444517724382047507702964
3.965338824964289798913342 -0.04238653512259305672360554 2.411004888996454820215831
3.966487164614407312512867 -0.03142198388668802216949771 2.422189280045168757737883
3.973260505132517383941604 -0.03903544876409496822144973 2.435049214273131923391702
3.966487164614407312512867 0.03142198388668802216949771 2.422189280045168757737883
3.973260505132517383941604 0.03903544876409496822144973 2.435049214273131923391702
3.965338824964289798913342 0.04238653512259305672360554 2.411004888996454820215831
3.962474604374373488013816 -0.03371866318692301467407901 2.403806732438703797072321
3.961947400845242217570785 -0.007998794730996615712226294 2.407613464877407238873275
3.962474604374373488013816 0.01772107372492977978017947 2.403806732438703797072321
3.963095740495359287081101 0.005702115430761631881262375 2.418797855926121176395327
3.964771283674608515212867 -0.009053201789259725587588612 2.426175514536131672116426
4.392429263508578429764384 0.005799085106386805445188859 2.413369821597808329016743
4.388063945584079306172498 -0.01452972095538492859623236 2.423534224628693944936231
4.379972598168568431731273 -0.001652973875635633084837939 2.439132418439720062508513
4.376246568677556680881935 -0.02411872564868911342217395 2.444566209219860120072099
4.376246568677558457238774 0.02081277789741787023758413 2.444566209219860120072099
4.386953992212781372472818 -0.03699547272843840828304707 2.422424271257395567147341
4.391583072025285972017628 -0.04786305428871824585446149 2.411191395370869461345364
4.378862644797270498031594 -0.03913241843972016520414314 2.438022465068421684719624
4.378862644797271386210014 0.03913241843972015132635534 2.438022465068421684719624
4.392693025396583905717307 0.03699547272843838052747145 2.412301348742167395045044
4.387217754100786848425741 0.03913241843972014438746143 2.421355798401754633175642
4.397058343321083029309193 -0.01666666666666667684371106 2.402136945711281335036347
4.397322105209090281618955 0.01292029902011741261669275 2.401068472855640401064647
4.397322105209090281618955 0.04625363235345074375270968 2.401068472855640401064647
3.99442791219631354593389 0.0003925044023872318330395381 2.464101673338213061015267
3.99721395609815655092234 0.02815374993203426795540523 2.4698452149708969294295
3.99721395609815655092234 -0.02736874112725980537352832 2.4698452149708969294295
3.991127362388303456697258 -0.04442791219631370830400741 2.461315629436370056026817
3.991127362388303456697258 0.0444279121963137013651135 2.461315629436370056026817
3.988341318486460895798018 -0.0166666666666666664353702 2.455572087803686187612584
3.985040768678450806561386 -0.001078608556725799139108801 2.452786043901843182624134
3.985040768678450806561386 0.03225472477660753373163161 2.452786043901843182624134
4.014526665267080574039937 -0.03280886593768447823116219 2.497335531204764702550847
4.011260035826392567059884 -0.004804470194821629236425764 2.494671062409529405101694
4.014526665267080574039937 0.02319992554804122322775761 2.497335531204764258461637
4.00859556703115771369994 -0.04467106240952953277734139 2.489198450072624968498758
4.00859556703115771369994 0.04467106240952951196065968 2.489198450072624968498758
4.002664468795234853359943 0.0283969001452500785509514 2.481061368940484790357459
4.005328937590469706719887 0.0003925044023872179552517303 2.486533981277389671049605
4.002664468795234853359943 -0.02761189134047562637741535 2.481061368940485234446669
4.349386176546593318903433 0.0441304720911298159480296 2.494744295544537138198393
4.348772353093186104899814 -0.01666666666666666296592325 2.496451412592158192182978
4.349386176546593318903433 0.0107971387577964900161831 2.494744295544537138198393
4.347434179283098387713835 0.01399031904649110369387444 2.498772353093185571992763
4.346709828926417884531475 -0.01811536738002780463907548 2.499386176546592785996381
4.346709828926417884531475 0.04609600547301001549627131 2.499386176546592785996381
4.348309618066027226745973 -0.04877235309318556782942622 2.495988677564999314029137
4.346971444255939509559994 -0.04877235309318557476832012 2.498309618066026693838921
4.346971444255939509559994 0.04877235309318557476832012 2.498309618066026693838921
4.348309618066027226745973 0.04877235309318556782942622 2.495988677564999314029137
4.367012158917322750539824 -0.04204789489051350553916464 2.459505312521807152137399
4.359505312521807951497976 -0.04204789489051349860027074 2.473851038687445935693177
4.359505312521807951497976 0.04204789489051349860027074 2.473851038687445935693177
4.367012158917322750539824 0.04204789489051350553916464 2.459505312521806708048189
4.368989745345773556550739 -0.02703420209948244681830154 2.453976052554743159106465
4.365458951505002183068882 -0.001652973875635608798709275 2.457952105109486140577246
4.368989745345774444729159 0.02372825434821122098094648 2.453976052554743159106465
4.357952105109486495848614 0.01202478566461091802342054 2.472297831275125368222234
4.353976052554743070288623 0.03740601388845774671887412 2.482667504886021170307231
4.353976052554743070288623 -0.01335644255923591414148 2.482667504886021170307231
4.038230313274009830593059 0.01607653187030081212705035 2.527846218596291549829402
4.043672555539730595342007 -0.005192047338859084870676952 2.538480508200871454960179
4.049215464698321831349404 0.01627786565604100871285098 2.549409865203634328878479
4.049316131591191414429431 -0.01646533288092646984956957 2.549704932601817297666003
4.049316131591192302607851 0.04902106419300850115305934 2.549704932601817297666003
4.043481178085205129946189 -0.0379352458758265634330975 2.538289130746345101385941
4.033040677052643019351308 -0.03852538067219240386362955 2.521917531477861018629483
4.049024087243795477775166 -0.04940986520363414846723771 2.549218487749107531215031
4.049024087243794589596746 0.0494098652036341415283438 2.549218487749107531215031
4.033232054507169372925546 0.0379352458758265495553097 2.522108908932387372203721
4.038482919318363784100256 0.0494098652036341415283438 2.532551821082440923760259
4.027789812241448608176597 -0.01666666666666666990481716 2.511474619327807467072944
4.022791553474608150509084 -0.01627908952262921427056597 2.505737309663903733536472
4.022791553474608150509084 0.01705424381070412206962139 2.505737309663903733536472
4.339892902632024096476471 0.004440407197160725627504974 2.514547504565136204490727
4.335776756713881852078885 -0.01267269903344396542177464 2.52310405768043821694846
4.326471468994097513416364 -0.005937876406124549706622151 2.5377737405304934270589
4.321282327192454530973009 -0.02704495026995195131047645 2.543886870265246624711608
4.321282327192454530973009 0.01516919745770284669306172 2.543886870265246624711608
4.33467846142459123370827 -0.03377977289727136095409676 2.522005762391147154488635
4.339453417349256270085789 -0.04600603236677730523140895 2.511452225459233744686571
4.325373173704806006867329 -0.03777374053049406543713928 2.536675445241202364599076
4.325373173704806006867329 0.03777374053049406543713928 2.536675445241202364599076
4.340551712638547776634823 0.03377977289727135401520286 2.512550520748525251235606
4.335337271431114913866622 0.03777374053049406543713928 2.520008778574536201233514
4.344667858556690021032409 -0.01666666666666666990481716 2.503993967633222794688663
4.345326668563213701190762 0.009996351413268399210831916 2.501996983816611397344332
4.345326668563213701190762 0.04332968474660173902046623 2.501996983816611397344332
4.049825060828899481180088 -0.01605263898909138620130221 2.550481953009889224404105
4.049912530414450095861412 0.01710575517314058199835891 2.550701497263125894221503
4.049912530414450095861412 -0.04921103315132335787041029 2.550701497263125894221503
4.049718129909136266064706 -0.04982506082889863463503133 2.550394483424338165633571
4.049718129909136266064706 0.04982506082889862769613742 2.550394483424338165633571
4.049630660323586539561802 -0.01666666666666666990481716 2.550174939171101051726964
4.049523729403824212624841 0.01610292648493965791955951 2.55008746958555088113485