# geometry NO_DATA 648
#  x  y  z
4.09475103863031364426206 0.01840132561673868405449639 1.923650286986423818547109
4.089502077260628531973907 -0.01666666666666666990481716 1.928951701438683663525353
4.09475103863031364426206 -0.01493200771659465575513792 1.923650286986423818547109
4.07838558402140449743456 -0.005566319811782524142051987 1.939502077260628620791749
4.072518052151865575183365 -0.02840173040574479196296309 1.944751038630314399213717
4.072518052151865575183365 0.01726909078217974194413564 1.944751038630314399213717
4.084606335493784712298293 -0.03950207726062893165419609 1.924055959671840287938949
4.073489842254560677758946 -0.03950207726062893859309 1.934606335493785689294555
4.073489842254561565937365 0.03950207726062893165419609 1.934606335493785689294555
4.084606335493784712298293 0.03950207726062893165419609 1.924055959671840287938949
4.142702954743791465830327 0.006811669306954405700427202 1.914108714563162116917283
4.135405909487582576389286 -0.01666666666666665602702935 1.921108789397269589471762
4.142702954743791465830327 -0.02652166402637893063976016 1.914108714563162116917283
4.124636677417956143187894 -0.004871797472586987531872893 1.929508474890544889035482
4.121164490604536823070703 0.002072576154251578976761561 1.930908085549712716044723
4.128806226573619397868242 -0.03540590948758489536762895 1.914509106483304856638483
4.115267056007497536995743 -0.02361104029350522687247249 1.926255144324807488942497
4.112139559906951902235051 -0.03540590948758489536762895 1.918255850751674707055372
4.11803699450399207648843 0.02361104029350525115860115 1.922908791976580156202203
4.108667373093533470296279 0.03820513080592034815818892 1.919655461410842534064614
4.128806226573619397868242 0.03540590948758490924541675 1.914509106483304856638483
4.105897434597038930803592 0.01710437916203009361959531 1.923001813759069644760302
4.111794869194078216878552 -0.004434084977223574225435598 1.927654754983974871862529
4.105897434597038930803592 -0.02597254911647725594825431 1.923001813759069644760302
4.192297729619824053770571 0.005713558434428400896465394 1.913415828814602592800043
4.184595459239648818083879 -0.01666666666666663521034764 1.920154508837039530888546
4.192297729619824053770571 -0.0276197748989049363110837 1.913415828814602814844648
4.175664555504146058240167 -0.001195140804337860122863457 1.926859696308486302740448
4.174435922148818534083148 0.001262125906317737881676133 1.926826203757496580593056
4.178122816519609372676314 -0.03459545923965100244767967 1.913681866116999863436376
4.166700159217654686472088 -0.01912393337732223169700418 1.920264846598345842565436
4.161456149852942765221542 -0.03459545923965100244767967 1.913825696429295897260658
4.169191912784107501011022 0.01912393337732230108594322 1.920387053588446413243673
4.160227516497615241064523 0.03452847413767126671935159 1.913792203878305731024057
4.178122816519609372676314 0.0345954592396510440810431 1.913681866116999419347167
4.157735762931162426525589 0.005934233957040763174362041 1.913669996888204938301214
4.165471525862327162315069 -0.01192757351396380068042635 1.920231354047356120418044
4.157735762931163314704008 -0.02978938098496839576023731 1.913669996888205382390424
4.243119406237047641639037 0.01343221613266057379298957 1.92031280989561214944672
4.236238812474095283278075 -0.01666666666666663867979459 1.924835514303377959066665
4.243119406237047641639037 -0.01990111720067275907775084 1.92031280989561214944672
4.227317636710389514576036 -0.001175684860743342677324996 1.928493321571134178071816
4.22527705470963699241338 0.002905479140763025675681108 1.92762842443112458745702
4.231454356969537755617239 -0.03623881247409631300993027 1.920051058798821097539644
4.217531563806675265482227 -0.0207478306681730152727372 1.920932964931475028791397
4.214787690302871148162467 -0.03623881247409631300993027 1.917013406566927757879171
4.22253318120583287509362 0.02074783066817305690610063 1.92370886606657709450019
4.212747108302117737821391 0.03450901819407672238559925 1.916148509426917501130561
4.231454356969537755617239 0.03623881247409633382661198 1.920051058798820875495039
4.207745490902960128209997 0.00562711738885408874200067 1.913372608291815879510978
4.21549098180592185514115 -0.01221523413855594639154667 1.920068067791465438176601
4.207745490902960128209997 -0.03005758566596600581122267 1.913372608291815879510978
4.280999130539894004243706 -0.0129176060350507035390244 1.943916736574945236526446
4.274624460407528303562685 0.008249200448173260591389067 1.937833473149890517461813
4.280999130539894004243706 0.02941600693139722125235558 1.943916736574945236526446
4.268541196982473806542657 -0.03783347314989062015744281 1.932513438404227290590143
4.268541196982473806542657 0.03783347314989063403523062 1.932513438404227290590143
4.256083263425054497020028 0.01502687680845486359326735 1.921110140233509344653839
4.262166526850108994040056 -0.006139929674769093598252212 1.92643017497917257152551
4.256083263425054497020028 -0.02730673615799305078977177 1.921110140233509344653839
4.076641357375998531153982 0.0001815923660361902958366997 1.973540234990037056661549
4.075956872962526844617059 -0.001550561192980696306742416 1.974406311769545396828107
4.06691038265176985078142 -0.01654241942853311789218829 1.983514925699369157996443
4.058548376754485431661124 -0.03339067846123597305130204 1.991757462849684578998222
4.058548376754485431661124 0.0003058396041697395437500284 1.991757462849684578998222
4.068380874015925741105093 -0.01839882022568355840475007 1.966830312822944737405351
4.065506917927017127567524 -0.03488389452631403958582368 1.958406183306593550952357
4.059334383705168747269454 -0.03351492569936952159448396 1.975938926752768498573687
4.059334383705168747269454 0.03351492569936952159448396 1.975938926752768498573687
4.073082916873617342901071 0.01839882022568355146585617 1.965982182253194210375113
4.064822433513544552852181 0.03351492569936952159448396 1.959272260086101891118915
4.073767401287089029437993 -0.01666666666666666990481716 1.965116105473685870208556
4.070208960784707841185082 -0.02068242528546849687276499 1.95755805273684302392212
4.070208960784707841185082 0.01265090804786484120214585 1.95755805273684302392212
4.290980514256295563768617 -0.003360965529894615645700728 1.965672336312090040522094
4.295490257128147248977257 0.02095288205973475439969356 1.967815444008623959604165
4.295490257128147248977257 -0.02767481311952399436471239 1.967815444008623959604165
4.291281524018900839223534 -0.04098051425629603561340275 1.961162593440238133268849
4.291281524018900839223534 0.04098051425629604949119056 1.961162593440238133268849
4.286771781147049154014894 -0.0166666666666666664353702 1.959019485743703992142173
4.287072790909654429469811 -0.0007702852955307007160740129 1.954509742871852084888928
4.287072790909654429469811 0.03256304803780264017776247 1.954509742871852084888928
4.318412900689128974818232 -0.02790832410582378547703186 1.996321224794952664538528
4.31472461315213529076118 -0.001932541182585021614231957 1.992642449589905329077055
4.318412900689128974818232 0.02404324174065373270758883 1.996321224794952664538528
4.311045837947087733255103 -0.0426424495899054289971275 1.986307408696672105463676
4.311045837947087733255103 0.0426424495899054289971275 1.986307408696672105463676
4.303678775205047379870393 0.02261481739334414778341831 1.97629359259839132434422
4.307357550410094049198051 -0.00336096552989461477833899 1.982628633491624770002204
4.303678775205046491691974 -0.02933674845313338774843714 1.97629359259839132434422
4.043423901371770767809721 0.003998941850563124053574704 2.010575040478792985254586
4.036847802743540825076707 -0.01666666666666666296592325 2.020423372297051933799139
4.043423901371770767809721 -0.02933439148277020361299527 2.010575040478792985254586
4.023640217468120283683675 -0.009748503884173932362844361 2.036847802743540825076707
4.017008730820929685023657 -0.02992963996104790538876905 2.043423901371770767809721
4.017008730820929685023657 0.01043263219270003719363338 2.043423901371770767809721
4.030364875441279082224355 -0.03684780274354063772657142 2.013940444994790190946787
4.017157290165858540831323 -0.03684780274354063772657142 2.030364875441279526313565
4.017157290165858540831323 0.03684780274354063772657142 2.030364875441279082224355
4.030364875441279082224355 0.03684780274354063078767751 2.013940444994790190946787
4.050313629101351509120832 -0.04954618353177246692364832 2.000251505482284031245399
4.050251505482284741788135 -0.04954618353177246692364832 2.000493741702461747422603
4.050251505482284741788135 0.04954618353177248080143613 2.000493741702461747422603
4.050313629101351509120832 0.04954618353177248080143613 2.000251505482284031245399
4.050351155472247555167087 -0.04942193629363892531936031 2.000226908234113754048167
4.050515940087294985971766 -0.01654241942853311095329438 2.000453816468227508096334
4.050351155472247555167087 0.01633709743657269647387764 2.000226908234113754048167
4.050453816468228218639069 -0.01618219422631083856400913 2.000696052688405224273538
4.050226908234114020501693 0.01669732263879496886316289 2.000711380674469186402575
4.050226908234114020501693 -0.04906171109141664599118116 2.000711380674469630491785
4.339821542179585378562479 -0.002593834096176211249235033 2.042415376275760863222786
4.331287706676150150997273 0.01557025178867996184628453 2.034830752551522348170465
4.339821542179585378562479 0.03373433767353615359008145 2.042415376275760863222786
4.323257724075675767494431 -0.04218891121205628480517191 2.015890661333635591745406
4.323475285057873485072832 -0.02701966376357914714767539 2.024972704276063240058647
4.33568819989157550054415 -0.03483075255152285470972018 2.037733826548758564456421
4.323475285057874373251252 0.02701966376357910898375891 2.024972704276063684147857
4.33568819989157550054415 0.03483075255152283389303847 2.037733826548758564456421
4.323257724075675767494431 0.0421889112120562639884902 2.015890661333635591745406
4.318639669878052700369153 -0.02745478572797464128507627 2.003905544393971283056999
4.315178151529984518219862 -0.001932541182585040262509324 2.007811088787943454292417
4.318639669878052700369153 0.02358970336280457116839848 2.003905544393971727146209
4.315395712512181347619844 0.001497419218189491698159377 2.016893131730371102605659
4.319074791842448135525956 -0.008855577878722972751113218 2.022069630278827467861902
4.028407418933043437903052 0.0008525198230694503104612481 2.072445100890025759809987
4.027343099333823950303213 -0.002981159021509034723340648 2.074361940312314800394233
4.018147877142380863801918 -0.01540928536137495599711578 2.084185853156402590258267
4.010016974550159041257302 -0.0329284718511110713334844 2.092092926578200895448845
4.010016974550159041257302 0.00210990112836116367606154 2.092092926578200895448845
4.019597993491442089464272 -0.02050034551124515352915623 2.066616834469932939555292
4.014297481637820297351027 -0.03631449235484236759408105 2.057857241225065081380308
4.010402771299999002962977 -0.03418585315640278871063273 2.076440747314020729419326
4.010402771299999002962977 0.03418585315640278871063273 2.076440747314020729419326
4.022042587480202158189968 0.02050034551124515352915623 2.065602347067446942219249
4.013233162038599921572768 0.03418585315640278177173883 2.059774080647354121964554
4.023106907079421645789807 -0.01666666666666666296592325 2.063685507645157457545793
4.016742075626580366076723 -0.02343401152933156234015044 2.056842753822579084044264
4.016742075626580366076723 0.009899321804001770530589965 2.056842753822579084044264
4.34743321784115899220069 -0.01535319091855388146106165 2.053223520032896320941518
4.348716608920579318464661 0.01541336025593900357910648 2.052596866827532728905226
4.348716608920579318464661 -0.04611974209304676303178283 2.052596866827532728905226
4.348168401481585121359785 -0.04743321784115954453664443 2.051940128953475994677547
4.348168401481586009538205 0.04743321784115953759775053 2.051940128953476438766756
4.346885010402165683274234 -0.01666666666666666990481716 2.052566782158840030803049
4.347620194042592700611749 0.01300346962983953136294701 2.051283391079420148628287
4.347620194042592700611749 0.04633680296317285729479352 2.051283391079420148628287
4.389182622094294217163224 -0.003450731013578393902019315 2.092633353107872906662124
4.380641281385337926224111 0.01514930853550008893471102 2.085266706215745280417195
4.389182622094294217163224 0.03374934808457856483254744 2.092633353107872906662124
4.373274634493210299979182 -0.03526670621574514580265358 2.076623424315262145256611
4.373274634493211188157602 0.03526670621574513886375968 2.076623424315262145256611
4.35736664689212727097356 0.003246848630524603544073026 2.060613495522652272029518
4.364733293784254897218489 -0.0153531909185538779916147 2.069256777423134963100892
4.357366646892126382795141 -0.03395323046763235042000417 2.060613495522652272029518
3.994543935889524721716271 0.01338702185712693781827198 2.118843085967601957975148
3.989087871779049443432541 -0.01666666666666666990481716 2.126237446818088017153059
3.994543935889524721716271 -0.01994631147620640546080928 2.118843085967601957975148
3.978175736843054366431716 -0.005157603205323831908890586 2.139087871779048910525489
3.97271966601753456771462 -0.02757880831770663510038588 2.144543935889524632898429
3.97271966601753456771462 0.01726360190705896954788123 2.144543935889524632898429
3.983631807802110902372306 -0.03908787177904947396367419 2.120781382841149476092824
3.97271967286611626946069 -0.03908787177904946702478028 2.133631807802111257643674
3.97271967286611626946069 0.03908787177904946702478028 2.133631807802110813554464
3.983631807802110902372306 0.03908787177904947396367419 2.120781382841149920182033
4.005242273892461568607359 -0.04134973836515705436500667 2.104613583239815177705623
4.004613583239815532976991 -0.04134973836515705436500667 2.108429824945520891787965
4.004613583239815532976991 0.04134973836515705436500667 2.108429824945520891787965
4.005242273892461568607359 0.04134973836515705436500667 2.104613583239815177705623
4.005582512122712657287593 -0.04009235705986533698785834 2.104325130817421118933908
4.0092789522874880958625 -0.01540928536137495599711578 2.108650261634842593139183
4.005582512122712657287593 0.009273786337115424993626789 2.104325130817421118933908
4.008650261634842060232131 -0.009034183255255867975308526 2.112466503340547863132315
4.004325130817420586026856 0.01564888844323451128071056 2.111957614228831658920171
4.004325130817420586026856 -0.03371725495374625070077457 2.111957614228831658920171
4.396904674632896359298684 -0.0152565628328517888245841 2.103800377284011258183227
4.398452337316448357285026 0.0149814451333780129793638 2.102957766517366433589586
4.398452337316448357285026 -0.04549457079908159756742592 2.102957766517366433589586
4.397693658250864778835876 -0.04690467463289647170876506 2.102252714600458816107675
4.397693658250864778835876 0.04690467463289647170876506 2.102252714600459260196885
4.396145995567312780849534 -0.01666666666666666296592325 2.103095325367103640701316
4.396934979185282088565145 0.01205398316839656133736547 2.101547662683551642714974
4.396934979185282088565145 0.04538731650172989767755283 2.101547662683551642714974
4.439877832873040830463651 -0.002681141498335211370562803 2.142558974371376656620214
4.431100454879455696755031 0.01577014057775196279043151 2.13511794874275384614748
4.439877832873041718642071 0.03422142265383912307363801 2.142558974371376656620214
4.423659429250832886282296 -0.0351179487427538267185767 2.126597359621618110736563
4.423659429250832886282296 0.03511794874275384059636451 2.126597359621618110736563
4.407441025628623165744102 0.003194719243235381866963252 2.110635744871858676674492
4.414882051257245976216836 -0.01525656283285177668151977 2.119156333992995300263829
4.407441025628623165744102 -0.03370784490893895257723756 2.110635744871858676674492
3.981465773555768805636035 0.001422523466650848795317374 2.169956749910881832477116
3.979299779377872603447486 -0.005754511822443194625498197 2.173545267555428317507449
3.969511079402777475877429 -0.0138228881277463536147998 2.184755856799983408933485
3.96188837360557943867434 -0.03191207826106387535070041 2.19237792839999157123998
3.96188837360557899458513 0.004266302005571162916930383 2.19237792839999112715077
3.971677714652927182470421 -0.02384370195576071549403707 2.165923202830483340619594
3.96838765131694026777609 -0.03908784515577652662887687 2.156878607763824895471316
3.961889014677832498989574 -0.03475585679998417776292996 2.177133792075038432045631
3.961889014677832498989574 0.03475585679998418470182386 2.177133792075038432045631
3.976009716041885244663945 0.02384370195576071549403707 2.164500672488769872359171
3.966221657139043621498331 0.03475585679998418470182386 2.160467125408371824590859
3.978175710219781002763284 -0.01666666666666666990481716 2.160912154844222943239629
3.972719652705897885880404 -0.01606975804954730718820954 2.155456077422111427210893
3.972719652705897885880404 0.01726357528378602568253086 2.155456077422111427210893
4.448370849744422095284335 -0.01570345090714628244477069 2.152110758135337587049207
4.44918542487221113646001 0.01600073217060928032484668 2.151777790887309027567653
4.44918542487221113646001 -0.04740763398490183827549416 2.151777790887309027567653
4.448737161827754249543432 -0.04837084974442222573554062 2.151296183007548989962743
4.448737161827754249543432 0.04837084974442221879664672 2.151296183007548989962743
4.447922586699965208367757 -0.01666666666666667337426411 2.151629150255577549444297
4.448288898783296474448434 0.01414099032217417534207371 2.150814575127788508268623
4.448288898783296474448434 0.04747432365550750127392021 2.150814575127788508268623
4.48894511974884125038443 -0.003653021740504180329273121 2.192598141489344953924956
4.480575347640402661397729 0.01487659457151967873356213 2.185196282978690618392648
4.48894511974884125038443 0.03340621088354353562799304 2.192598141489344953924956
4.473173489129747437687001 -0.03519628297869052679924806 2.176413082702438828164304
4.473173489129747437687001 0.03519628297869051986035416 2.176413082702438828164304
4.457401858510654513167992 0.002826165404877583556958465 2.160228023915531814225233
4.46480371702130973687872 -0.01570345090714627550587679 2.169011224191783604453576
4.457401858510654513167992 -0.03423306721917013240030769 2.160228023915531814225233
3.976726112418365488565541 0.000612225318309204393982248 2.223886112899943867660113
3.976322225197915116723379 -0.001419999759210477385806826 2.224902225438703418092246
3.967793911603248790953558 -0.01563662743012161210343081 2.233945558651641682956779
3.959669485229033725204317 -0.03291551941509748141490022 2.241972779325820841478389
3.959669485229032837025898 0.001642264554854257208038604 2.241972779325820841478389
3.968295862397074103000705 -0.01869889174418634669727624 2.216875862637862404369571
3.961078305674045729745103 -0.03475333309254381025654723 2.2082364166453745113472
3.959767548802408221320093 -0.03394555865164253227739266 2.225919195850801557412524
3.959767548802407777230883 0.03394555865164253227739266 2.225919195850801557412524
3.969104668474886743467778 0.01869889174418634669727624 2.216262779446215525069874
3.960674418453595357902941 0.03394555865164253921628656 2.209252529184134505868542
3.969508555695338003488359 -0.0166666666666666664353702 2.215246666907455974637742
3.961887111751859258390596 -0.02906955503520254613381013 2.207623333453727632047503
3.961887111751859258390596 0.004263778298130788471653752 2.207623333453727632047503
4.495858210748380656696099 -0.008298868957641926738522109 2.208325688106131501342588
4.49792910537419032834805 0.0208926751240721582381088 2.210438692334834254182852
4.49792910537419032834805 -0.03749041303935600477625911 2.210438692334834254182852
4.497034069326616645412287 -0.04585821074838074273838373 2.206254793480321829690638
4.497034069326616645412287 0.04585821074838074273838373 2.206254793480321829690638
4.494963174700806973760336 -0.01666666666666666296592325 2.204141789251619520939585
4.496139033279042962476524 0.01073480531990043257417611 2.202070894625809849287634
4.496139033279042962476524 0.04406813865323375850602261 2.202070894625809849287634
4.52325939294437517901315 -0.02208954203505989269396004 2.245348934979434663006259
4.518606294003035372952581 0.001941661257143419529527795 2.240697869958869326012518
4.52325939294437517901315 0.02597286454934673305405823 2.245348934979434663006259
4.513955228982469591869631 -0.04069786995886998104410281 2.232866167167280480043701
4.513955228982469591869631 0.04069786995886998104410281 2.232866167167280480043701
4.504651065020564892904531 0.01573233433456138266604007 2.220383399355125852991932
4.509302130041129785809062 -0.008298868957641928473245585 2.22821510214671514304996
4.504651065020564892904531 -0.0323300722498452430819782 2.220383399355125852991932
3.942670216315300457665671 0.005437701549371936476928724 2.262767485234070896638059
3.935340432630601625874078 -0.01666666666666666296592325 2.270389067089986223635378
3.942670216315300457665671 -0.02789563178396139292436473 2.262767485234070896638059
3.92043007616546512750233 -0.01315404626360492171266436 2.285340432630600826513501
3.912849503385029237279014 -0.03182781222753963690230705 2.292670216315300102394303
3.912849503385029237279014 0.005519719700329800415872228 2.292670216315300102394303
3.928015958322179201900326 -0.03534043263060138162501289 2.263064592781564243750836
3.913105601857043147617787 -0.0353404326306013885639068 2.278015958322178402539748
3.913105601857043147617787 0.03534043263060138162501289 2.278015958322178846628958
3.928015958322179201900326 0.03534043263060138162501289 2.263064592781564243750836
3.975274534699436035367626 0.0001164126953044866848423905 2.274841877995867456263568
3.975224576871196013883036 -0.000216328351784648130213401 2.27500824851941185755777
3.97473994047020084963151 -0.0007529444502052145453754872 2.275492884920407021809297
3.974305261897445706864573 0.0001164126953044862782665758 2.2758111507978568965882
3.967112528388414549596064 -0.01699940771375579862123573 2.266896200036630393270798
3.959236008325702105281607 -0.03354966168511797769413718 2.258504660355644677594
3.966348400789215578043923 -0.01753602381217636563270901 2.268816646365473310709149
3.958671030879189700613097 -0.0334497460286378098248683 2.260386332005241527554062
3.966627891987419829433748 0.01753602381217636563270901 2.267380836437625113433114
3.95823635230643455784616 0.03408627778353854470561046 2.260704597882691402332966
3.96734805680848312547937 0.01699940771375580209068268 2.266616708838426585970183
3.959186050497462083797018 0.0334497460286378167637622 2.258671030879189078888203
3.967398014636723591053169 -0.01666666666666666296592325 2.26645033831488174058677
3.959471536745770681164913 -0.03208696574500362330706338 2.258225169157440870293385
3.959471536745770681164913 0.0012463675883297043595066 2.258225169157440870293385
3.957956861108230306456335 0.004183546702309100424888033 2.262140407810539599609001
3.965913722216460435276986 -0.01323606441456278044743744 2.269134912242923629577263
3.957956861108230306456335 -0.03065567553143466045240118 2.262140407810539599609001
4.528248636351027478497144 -0.0160063052999248750518646 2.294254941650952339671221
4.522741905699084519199005 0.00583691133531345947293989 2.288509883301904856978126
4.528248636351027478497144 0.02768012797055179399774438 2.294254941650952339671221
4.523451888610033222448692 -0.04038839649885805210827172 2.264147724648128523483592
4.519892782997176006176687 -0.02889827980076305549705928 2.275069332965747648245269
4.526338770247595455487044 -0.03850988330190500269489817 2.286930197881843263019164
4.519892782997176006176687 0.02889827980076305549705928 2.275069332965747648245269
4.526338770247595455487044 0.03850988330190499575600427 2.286930197881843263019164
4.523451888610033222448692 0.04038839649885804516937782 2.264147724648128523483592
4.523414129674380390611077 -0.0217800685750479672275759 2.254805801750570992680878
4.518915767463046684326855 0.001941661257143422998974747 2.259611603501141985361755
4.523414129674380390611077 0.02566339108933480411822714 2.254805801750570992680878
4.51535666185018946805485 0.005176549968571670691519504 2.270533211818761110123432
4.516295918448665958067068 -0.007055063165524716635446101 2.276649018385809242204232
3.895864840260147676787028 0.02394700262879068120014381 2.32808216236864273795959
3.891729680520295886481108 -0.01666666666666668378260496 2.332838341574542173617601
3.895864840260147676787028 -0.00938633070454265514004355 2.32808216236864273795959
3.883447716130505433795861 0.0001027378870863508708577427 2.341729680520294287759953
3.879300911480567215505744 -0.02496027596654204830373125 2.345864840260146966244292
3.879300911480567215505744 0.02516575174071476045378759 2.345864840260146966244292
3.887610743155665460335513 -0.04172968052029508295719396 2.328719404209913079739636
3.879328778765875007650266 -0.04172968052029507601830005 2.337610743155664749792777
3.879328778765875007650266 0.04172968052029506214051224 2.337610743155664749792777
3.887610743155665460335513 0.04172968052029506214051224 2.328719404209913079739636
3.926074011758006854222458 0.0002596978735255507523063678 2.324185686115518123529
3.925731779284147737740795 -0.0009441628212442781118221569 2.324787616462903105940541
3.922690090178218014216327 -0.005139215390615678620556128 2.327829305568832829465009
3.919990633546147407173521 0.0002596978735255554143757095 2.330269064327378014667147
3.917770474931323576583964 -0.01787052736143652370559565 2.316826312110078500694499
3.911063602862757893063872 -0.03427749615457759829739715 2.308363129839982708091384
3.914226907908121777524002 -0.02206557993080792215434549 2.327141451019651530174315
3.908965060187368223409976 -0.03359303120685894206154387 2.316740387908281739726135
3.914728785825393408970285 0.02206557993080788052098207 2.319868001216008668308177
3.90626560355529761636717 0.03847254872394897939891223 2.319180146666827369017483
3.919024907215582942399124 0.01787052736143647166389137 2.316324434192806869248216
3.910721370388898776582209 0.03359303120685890736707435 2.308965060187367690502924
3.919367139689441614791576 -0.01666666666666669072149887 2.315722503845422330925885
3.912318035147017258879032 -0.02887655010902735741584735 2.307861251922711076645101
3.912318035147017258879032 0.00445678322430597892434001 2.307861251922711076645101
3.905763725638025540831677 0.02068987083244458805020294 2.326453596470469342705201
3.911527451276051170481196 -0.001116011224837736405882116 2.329581209778196271287243
3.905763725638025540831677 -0.02292189328212004134632807 2.326453596470469786794411
4.518303523948626221340419 -0.02795081849992089167988851 2.346254342448547802746361
4.514770248301491761822035 -0.002108800269492305291818557 2.342508684897095072585671
4.518303523948626221340419 0.02373321796093628283097487 2.346254342448547802746361
4.528091213774051659868292 -0.0386479392651135761349579 2.316839424773061928419793
4.520585082324513948037747 -0.03115662416220883051964918 2.329760433888275805713874
4.522187985155658118685551 -0.04250868489709525022135495 2.340751070187499394137376
4.520585082324513948037747 0.03115662416220883051964918 2.329760433888275805713874
4.522187985155658118685551 0.04250868489709525022135495 2.340751070187499394137376
4.528091213774051659868292 0.0386479392651135761349579 2.316839424773061928419793
4.52817960836942390301374 -0.01614436126313345543081823 2.305676030367443729574006
4.522603849735876480053776 0.005836911335313456003492938 2.311352060734886748605277
4.52817960836942390301374 0.02781818393376037090725106 2.305676030367443729574006
4.515097718286338768223231 0.009175351563761917350614539 2.324273069850100625899358
4.513167345470348479352651 -0.005314605931780246733664441 2.33151804859787148416217
3.885796953959264499189885 0.004981808251974969431463691 2.369184854292710529222177
3.884134833168613631926291 -0.00830604983327694335049074 2.375828783335336424897832
3.876649600381029792117715 -0.006664415741889634717254332 2.388315141585308332139448
3.870826488384097707751152 -0.02831289066053126884936475 2.394157570792654343705408
3.870826488384097707751152 0.01498405917675199941485609 2.394157570792654343705408
3.878358584158997590662921 -0.02995452475191857921732463 2.370052534325719939545252
3.875919048976553149543633 -0.04163938316661028316012505 2.35922829686639934365644
3.870873351371413750854344 -0.03831514158530829883275715 2.382538892575692290876077
3.870873351371413750854344 0.03831514158530829883275715 2.382538892575692290876077
3.881695297986169634896214 0.02995452475191858268677159 2.36500454587601538491981
3.87425692818590228228004 0.03831514158530830577165105 2.365872225909025239332095
3.883357418776820058070598 -0.0166666666666666664353702 2.358360616833389489244155
3.879255762803725193776927 -0.008257878946303356601510437 2.354180308416694344941789
3.879255762803725193776927 0.02507545438702997800395345 2.354180308416694344941789
4.496354615918471075985963 0.02895670990432192004604417 2.382602093985850544299865
4.492709231836942151971925 -0.01666666666666665602702935 2.38583297087063250785377
4.496354615918471075985963 -0.004376623429011418028866665 2.382602093985850544299865
4.491770865039772964166787 0.01478993307232763856906566 2.392709231836942951332503
4.494477882324131812197265 -0.01125263209794884547432225 2.396354615918471431257331
4.494477882324131812197265 0.04083249824260410526521881 2.396354615918471431257331
4.495940137278322090708116 -0.04270923183694314007041726 2.389063876312012002500751
4.495001770481152902902977 -0.04270923183694314007041726 2.395940137278322445979484
4.495001770481152902902977 0.04270923183694314007041726 2.395940137278322445979484
4.495940137278322090708116 0.04270923183694314007041726 2.389063876312012002500751