# geometry NO_DATA 360
#  x  y  z
4.187081117103994110095755 0.01056835385068354352111619 2.126536393154680126826861
4.1935405585519962556873 0.03098280428801146804684841 2.133694461965352395793616
4.1935405585519962556873 -0.009846096586644374065722118 2.133694461965352395793616
4.170744441855379847083896 -0.02553687828419254693401719 2.146281320139572734717603
4.165950240718329311562229 0.0003590953282868157851910607 2.142562640279146002342259
4.170744441855379847083896 0.02625506894076637745549796 2.146281320139572734717603
4.182453226124192013912761 -0.02254110239896793890790327 2.128705442353531651633602
4.191849885438346134947096 -0.03708111710399458749165547 2.135052945259693135682255
4.175964680765955172603299 -0.02802262557411958412978414 2.135193987711768492943065
4.177207554410919954079873 -0.04256264027914622577464243 2.14459064702592216988819
4.175964680765955172603299 0.02802262557411938984075483 2.135193987711768492943065
4.177207554410918177723033 0.04256264027914603148561312 2.14459064702592216988819
4.182453226124192902091181 0.02254110239896794237735023 2.128705442353531651633602
4.191849885438346134947096 0.03708111710399458749165547 2.135052945259693135682255
4.17768445778984087723984 -0.002126651961640021321064964 2.120188890248517754599789
4.174747239923689789975469 0.003747783770661254620915059 2.120999456153028539517891
4.168258694565452060487587 0.009229306945812700349596192 2.127488001511265824916563
4.164707367073365418264075 -0.002126651961640217778498618 2.133165980964992325397134
4.212469114629815436501303 -0.03049775724769033385941341 2.142966871877505674603981
4.216784249498648051712735 -0.01123068015934432575808621 2.135933743755011882115014
4.212469114629815436501303 0.008036396929001685812687938 2.142966871877505674603981
4.209751121376154259223767 -0.03593374375501268147559131 2.139917715469514369885928
4.209751121376154259223767 0.03593374375501268147559131 2.139917715469514369885928
4.207033128122493081946232 0.0298354309390295585613373 2.136868559061522621078666
4.214066256244986874435199 0.01056835385068354699056314 2.132884587347020577396961
4.207033128122493081946232 -0.00869872323766246804965796 2.136868559061522621078666
4.13473518899615477550924 -0.0005539776799356995254375313 2.173321155497209389295676
4.142367594498077565390304 0.01751454464955367815170995 2.173745094488652718212052
4.142367594498077565390304 -0.01862250000942504424283896 2.173745094488652274122842
4.138401802199021872752382 -0.003339954721296126572555041 2.191741756920318362489297
4.131588265719032371237063 0.01347689245267490350255191 2.18348351384063699143212
4.138401802199021872752382 0.03029373962664590538840237 2.191741756920317918400087
4.133422725556852306283417 -0.01812050584133692576749297 2.18202086989403021277667
4.141782050646108714886395 -0.03473518899615604671460289 2.181769872809985688633105
4.132646707471788971588467 -0.01686883068581855257828117 2.182796887979093547471621
4.139411145454049645309169 -0.03348351384063766311705024 2.191156213068350400163808
4.132646707471788971588467 0.0168688306858186080894324 2.182796887979093547471621
4.139411145454049645309169 0.03348351384063769781151976 2.191156213068350400163808
4.133422725556852306283417 0.01812050584133691882859907 2.18202086989403021277667
4.141782050646108714886395 0.03473518899615600508123947 2.181769872809986132722315
4.126375863906898366906262 -5.19835118475830694180842e-05 2.173572152581253469350031
4.125648944319562971827509 0.001401855662822706471287715 2.174247088656740878320761
4.124872926234500525310978 0.0001501805073043945937087684 2.175023106741804213015712
4.124823827736770809337941 -5.198351184752166969380363e-05 2.175124188751380138739933
4.168890385406060161699315 -0.04310965782278842334251934 2.160377504408583781980724
4.160377504408583781980724 -0.04310965782278842334251934 2.168433848901949456688953
4.160377504408583781980724 0.04310965782278822905349003 2.168433848901950344867373
4.168890385406061049877735 0.04310965782278822905349003 2.160377504408584670159144
4.170470933083558762177745 -0.02608389582783474797134105 2.153445171088605558651352
4.165403223174688029928348 0.0003590953282868203930502937 2.156890342177211650209756
4.170470933083558762177745 0.02680208648440857849282182 2.153445171088606002740562
4.156890342177210762031336 -0.0005539776799358570600131935 2.164946686670576880828776
4.153445171088604226383723 0.0258890134761859021239605 2.169557860075336908067811
4.153445171088605114562142 -0.02699696883605742087075541 2.169557860075336463978601
4.236921418016475371359775 0.01127715226670888623572431 2.177050491450210678578969
4.243460709008237685679887 0.03153190361651854456415123 2.184483109925136723461492
4.243460709008237685679887 -0.008977599083100780766319993 2.184483109925136723461492
4.229512035595232255502651 -0.03692141801647633170269103 2.170511200458449252437276
4.229512035595232255502651 0.03692141801647633170269103 2.170511200458449252437276
4.222972744603469941182539 -0.0166666666666666594964763 2.163078581983523207554754
4.215563362182226825325415 -0.02430926214286798642261189 2.156539290991761337323851
4.215563362182226825325415 0.009024071190465346448128514 2.156539290991761337323851
4.261717950231600049448843 -0.03217050115596778447901727 2.193888451387567606332141
4.265026298034447549412107 -0.01106026504749781265435349 2.187776902775136367296227
4.261717950231600049448843 0.01004997106097226845788928 2.193888451387567606332141
4.258914749422014978108564 -0.03777690277513674060871907 2.191193694187589358080004
4.258914749422015866286984 0.03777690277513663652531051 2.191193694187588469901584
4.256111548612431683125124 0.03238738837517884938677071 2.188498936987609777560237
4.262223097224862478071827 0.01127715226670877174397489 2.18508214557515723086567
4.256111548612430794946704 -0.009833083841761198345965411 2.188498936987610221649447
4.120410736226846282193037 -0.02542827599311246050683977 2.245839012219959407445913
4.116446849783483408202756 -0.0004169182198596847743754523 2.241678024439919258981035
4.120410736226846282193037 0.02459443955339303891638458 2.245839012219959407445913
4.137062649744033926424436 -0.03528409672075875219698915 2.221990870184364030848201
4.126151857964403646406026 -0.02696212116067814648645573 2.234496549070990489838096
4.126918780548186838075253 -0.04167802443991939359557719 2.243805264098036822417725
4.126151857964403646406026 0.02696212116067819158926611 2.234496549070990489838096
4.126918780548186838075253 0.04167802443991944216783452 2.243805264098036822417725
4.137062649744034814602855 0.03528409672075875913588305 2.221990870184364030848201
4.137501510758961664748767 -0.005140537601417211749366132 2.207357951639620452510826
4.129787682838911067051413 0.01347689245267487401225281 2.214715903279240727385968
4.137501510758961664748767 0.03209432250676696324331871 2.207357951639620452510826
4.118876891059280787033003 0.008344691106586102358200208 2.227221582165867186375863
4.115679927199700216533529 -0.00195076338742537530764054 2.232369309412872926401405
4.287090197988608686330281 0.01066985101426820223280423 2.226578060851857276958299
4.293545098994304254347298 0.03109338233621108948945277 2.2337914186866294485867
4.293545098994304254347298 -0.009753680307674679819673891 2.2337914186866294485867
4.279681633137222718232806 -0.03709019798860954675312485 2.220123159846162153030491
4.279681633137222718232806 0.03709019798860954675312485 2.220123159846162153030491
4.273226732131527150215788 -0.01666666666666666296592325 2.21290980201138953731288
4.265818167280139405761474 -0.02397006705888815591976027 2.206454901005694413385072
4.265818167280139405761474 0.009363266274445173481533189 2.206454901005694413385072
4.313716130683395988398843 -0.02815891682696835054966478 2.241875047510365259739729
4.319045494076149793727382 -0.01107548847290393614906101 2.233750095020730519479457
4.313716130683395988398843 0.006007939881160486057798398 2.241875047510365259739729
4.31092054158651549755632 -0.03375009502073109124431483 2.238876639684165947841166
4.31092054158651549755632 0.03375009502073108430542092 2.238876639684165947841166
4.308124952489633230356958 0.02775327936833262010285495 2.235878231857966635942603
4.31624990497926752652802 0.01066985101426819529391032 2.230751687194531207580894
4.308124952489633230356958 -0.006413577339796219106693442 2.235878231857966635942603
4.087656054106663994218707 0.00100474912250483362774478 2.271179653787921637331237
4.09382802705333137538446 0.02199413656250225404531484 2.273843388735839354808377
4.09382802705333137538446 -0.01998463831749264230097651 2.273843388735839354808377
4.087938018168843612443197 -0.004083631609549291142935434 2.292021649778392955454365
4.080936534416832905947103 0.01329300128056948304688945 2.284043299556785644455204
4.087938018168843612443197 0.03066963417068823208322392 2.292021649778392955454365
4.084822821080832611073674 -0.02121488464582543115310997 2.280500100307503164032141
4.093268903017080795336824 -0.03765605410666409552655765 2.281115223471669395394201
4.082306477582442028051446 -0.01760213009594676497604482 2.28301644380589419114358
4.089065726825641178265869 -0.03404329955678542241059858 2.291462525742141487228309
4.082306477582442028051446 0.01760213009594680660940824 2.28301644380589419114358
4.089065726825641178265869 0.0340432995567854432272803 2.291462525742141487228309
4.084822821080833499252094 0.02121488464582551095038987 2.280500100307503164032141
4.093268903017080795336824 0.03765605410666414409881497 2.281115223471669395394201
4.079209972170417586312396 -0.0002254972058279580975244383 2.270564530623755405969177
4.076935863180837671393419 0.004322720773330827707947588 2.272613142407506892084257
4.074419519682446200192771 0.0007099662234521268364129121 2.275129485905898363284905
4.074177285173633755732681 -0.0002254972058279917891069483 2.275597217620537904281264
4.120217088990338893950138 -0.04193757907508914584138182 2.262092214766935338587928
4.11209221476693542740577 -0.04193757907508914584138182 2.27092792266152088132003
4.11209221476693542740577 0.04193757907508919441363915 2.27092792266152088132003
4.120217088990338893950138 0.04193757907508918747474524 2.262092214766935338587928
4.120280958909262380984728 -0.0256878306282822127526444 2.254031210462455359078149
4.116187295148314717607718 -0.0004169182198596893822346854 2.258062420924910718156298
4.120280958909262380984728 0.02485399418856278422329531 2.254031210462455359078149
4.10806242092491036288493 0.001004749122504826038329573 2.26689812881949670497761
4.104031210462454559717571 0.02627566153092730089069207 2.271702626251626888631563
4.104031210462455447895991 -0.02426616328591769955469459 2.271702626251626888631563
4.335685237421364135457225 0.01438608551105243285594959 2.278700848089687980291274
4.341132182843971953900564 -0.003492194665838663399093367 2.28763998817813352104622
4.345486729870856379420729 0.01220128871960778418892524 2.29771941884438613001862
4.344394331475133874675976 -0.0188514634581113046940537 2.298859709422193198236073
4.344394331475133874675976 0.04325404089732687307190417 2.298859709422193198236073
4.339397013869761288162863 -0.03454494684355775141471057 2.28590481920392285530852
4.326666226877782683857276 -0.03682552799917199887191899 2.270378443115062871981991
4.343751560896645713683029 -0.04771941884438575531834914 2.295984249870175020191709
4.343751560896645713683029 0.04771941884438575531834914 2.295984249870175464280919
4.328401395851994237773397 0.03454494684355776529249837 2.272113612089273537719691
4.332113172300389614122196 0.04771941884438575531834914 2.279317583203508412736937
4.322954450429386419330058 -0.01666666666666665602702935 2.263174472000827996964745
4.31567060886001563346781 -0.02424996047373192964435873 2.256587236000413998482372
4.31567060886001563346781 0.009083372859601413634722533 2.256587236000413998482372
4.055069603654250620650146 -0.04391270174385077107448438 2.348982305398101377846842
4.05406134372997328796373 -0.0126147576143150422917083 2.347964610796202222786633
4.055069603654251508828565 0.01868318651522082873839281 2.348982305398100933757632
4.087003121277040129655234 -0.03531164650755716505337034 2.322023287303421668070769
4.073040981905320379041768 -0.03327625730375970147800757 2.337672259368189564554541
4.06772275968527452505441 -0.04796461079620253920019479 2.34699474928863471845375
4.073040981905320379041768 0.03327625730375954882234169 2.337672259368189120465331
4.06772275968527452505441 0.04796461079620240042231671 2.34699474928863427436454
4.087003121277039241476814 0.03531164650755716505337034 2.322023287303421668070769
4.08730384469345686682118 -0.005351978560321036387792404 2.307344176746221720009089
4.079668187466060302881488 0.01329300128056945702603731 2.314688353492442729475442
4.08730384469345686682118 0.03193798112145995737876092 2.307344176746221720009089
4.065706048094341440446442 0.01463127746286905540851198 2.330337325557210625959215
4.059379565950019141951088 -0.001978313174223970960508012 2.338642120875756624798214
4.342164000553327518616697 0.005573939582261038840071965 2.313409939028933326454762
4.337762454963359104453957 -0.01437703076219699373228256 2.323385424201162230417594
4.327798975192367336717325 -0.005549928779786095917048172 2.338907272915593971163162
4.322237041011343983143433 -0.02779053502871380379457555 2.344453636457796807945897
4.322237041011343983143433 0.01669067746914160849103226 2.344453636457796807945897
4.332324708972000060214214 -0.03661763701112469987508646 2.317947678209803630267061
4.335638383540674212213162 -0.04771036409553032486829949 2.306827375085339859595024
4.322361229201009180656001 -0.03890727291559437084345063 2.333469526924235371012628
4.322361229201008292477582 0.03890727291559437778234454 2.333469526924235371012628
4.341076129532033256452905 0.03661763701112470681398037 2.312265121076698903834767
4.331236837950705798050421 0.03890727291559437778234454 2.316802860257569207647066
4.345477675122001670615646 -0.01666666666666666296592325 2.302289635904469555782725
4.344389804100707408451854 0.009911652815138113220561067 2.301144817952235133162731
4.344389804100707408451854 0.04324498614847144262185452 2.301144817952235133162731
4.04635231881012558119437 -0.008788597683624804757229754 2.357586715681396327681796
4.048176159405063145868553 0.02089705445983348203187191 2.359701909577979428433991
4.048176159405063145868553 -0.03847424982708286256283259 2.359701909577979428433991
4.040424261727219246154164 -0.001510609032016498607178812 2.39193487075923627571683
4.032309824724756630587308 0.01569246581978879506724667 2.383869741518471752073083
4.040424261727219246154164 0.03289554067159406597342652 2.39193487075923627571683
4.03936121303721940023479 -0.03002793185941826994977966 2.376342227560427122767805
4.047865686228532489110421 -0.04635231881012494975502491 2.372119068576594713704253
4.032583516206254437008738 -0.0175453545677652505974109 2.383119924391392530083067
4.04060088897412850172941 -0.03386974151847194081099701 2.391624397582705174869488
4.032583516206253548830318 0.01754535456776529570022127 2.383119924391392530083067
4.04060088897412938990783 0.03386974151847195468878482 2.391624397582705618958698
4.03936121303721940023479 0.03002793185941806178296254 2.376342227560427122767805
4.047865686228532489110421 0.04635231881012472771041999 2.372119068576595157793463
4.037847845618811604140319 -0.0003422797159602063436951991 2.361809874665228292656138
4.031167213022436079938871 0.01301898547679141739108477 2.368148227545644246561096
4.024389516191471116712819 0.0005364081851386521757052428 2.374925924376609209787148
4.024292451956882565866636 -0.0003422797159599588745493293 2.375365268327158663197451
4.055064752742237210725307 -0.04797673738019389566566986 2.353038798216060545342998
4.053038798216061167067892 -0.04797673738019389566566986 2.356977832707581654858586
4.053038798216061167067892 0.04797673738019375688779178 2.356977832707582098947796
4.055064752742237210725307 0.04797673738019375688779178 2.353038798216060989432208
4.055063540362255025684135 -0.04392482832784212060106555 2.351011631309902760733621
4.054049217145982098031709 -0.0126147576143150353528144 2.35202326261980632082782
4.055063540362255025684135 0.01869531309921218867331483 2.351011631309902760733621
4.052023262619806942552714 -0.008788597683624716286332479 2.355962297111327430343408
4.051011631309902938369305 0.02252147302990250080090284 2.358889700292945423854007
4.051011631309902938369305 -0.04009866839715180153458363 2.358889700292945423854007
4.330681331361148522773874 0.001188555693409046321029621 2.370507224332261131394262
4.328732082450631679648723 -0.005087053514443230436969934 2.373645028936187451051865
4.318813599308318984526522 -0.01474991277017986303354835 2.384521889026742336170628
4.310844365076524020707893 -0.03260513513025557058577775 2.392260944513370901631788
4.310844365076524020707893 0.003105309589895851457574949 2.392260944513370901631788
4.321144959661757489755018 -0.02294227587451894492809323 2.36605790614731414933658
4.317775717425160308948762 -0.03842038684777656504243382 2.357130294967276107342968
4.311226476519445682811238 -0.03452188902674238613066393 2.376934766237869034455343
4.311226476519445682811238 0.03452188902674237919177003 2.376934766237869034455343
4.325362840214033610664046 0.02294227587451894145864628 2.364717417756149409058253
4.31582646851464346582361 0.03452188902674238613066393 2.360268099571202427000571
4.327312089124550453789197 -0.0166666666666666664353702 2.36157961315222308940065
4.32199359797743554167937 -0.01712954193200953711961887 2.355789806576111367064641
4.32199359797743554167937 0.01620379140132379922056849 2.355789806576111367064641
4.043497622411006631182318 -0.01340162631189579026114167 2.408134897766379012296056
4.046748811205503670862527 0.01342932943244400274818151 2.406516229149267438458537
4.046748811205503670862527 -0.04023258205623567868025603 2.406516229149267438458537
4.046261710782063758529148 -0.043497622411006450771076 2.404883708971881972615847
4.046261710782063758529148 0.04349762241100655485448456 2.404883708971881972615847
4.043010521987567607027358 -0.0166666666666665658214086 2.406502377588993546453366
4.045774610358625622552609 0.009190088230795335003109336 2.403251188794496950862367
4.045774610358625622552609 0.04252342156412866613912627 2.403251188794496950862367
4.084635271394025046731713 -0.008649270708736393059590242 2.443284542102761580650849
4.077390822542870552069871 0.01125314683012043626142429 2.436569084205523427755224
4.084635271394025046731713 0.03115556436897727599077967 2.443284542102762024740059
4.070675364645631510995827 -0.03656908420552350269527864 2.428250395613479994949557
4.070675364645632399174247 0.03656908420552349575638473 2.428250395613480439038767
4.056715457897238863438361 0.006500791226960936711187777 2.413216249124199297426685
4.063430915794477016333985 -0.01340162631189589781399718 2.421534937716242286143142
4.056715457897238863438361 -0.03330404385075272366556476 2.413216249124198853337475
4.294904484202761274502791 0.01648372111314734544951222 2.42157923691038501345929
4.289808968405523614819685 -0.01666666666666669419094582 2.428146344759336550112039
4.294904484202761274502791 -0.01684961222018598395178124 2.42157923691038501345929
4.279549907807678188476075 -0.003851454529026507311861849 2.439808968405525302358683
4.27438636300706953363715 -0.02699375626788463877758772 2.444904484202762517952578
4.27438636300706864545873 0.01929084720983165190943964 2.444904484202762517952578
4.284792061415288344505825 -0.03980896840552482218722474 2.423129437769100391619759
4.274533000817442029983795 -0.03980896840552482218722474 2.434792061415289587955613
4.274533000817442029983795 0.03980896840552479443164913 2.434792061415289143866403
4.284792061415288344505825 0.03980896840552479443164913 2.423129437769100391619759
4.307973264620040154682101 -0.03671427414966655505823567 2.40701488767179760941417
4.307014887671796188328699 -0.03671427414966655505823567 2.412018930692275908711508
4.307014887671797076507119 0.03671427414966658281381129 2.412018930692275908711508
4.307973264620040154682101 0.03671427414966658281381129 2.40701488767179805350338
4.30855961682165222725871 -0.0347975202531797533911373 2.406642862925166159726587
4.314244102798576285806575 -0.01474991277017983354324926 2.413285725850333296449435
4.30855961682165222725871 0.005297694712820060283786638 2.406642862925166603815796
4.313285725850332319453173 -0.006658580625710758260638045 2.418289768870811151657563
4.306642862925165182730325 0.01338902685728913556639785 2.416650948966122314232052
4.306642862925165182730325 -0.02670618810871067810852608 2.416650948966122314232052
4.092543405412293111567124 0.01228959952901020370730212 2.46974619411671714175327
4.085086810824586578405615 -0.01666666666666669419094582 2.473688205176798771134372
4.092543405412293111567124 -0.02104373380432313436760872 2.46974619411671714175327
4.076676415098537731296346 -0.0001541247854294743382941313 2.47683053988396828515306
4.075722613960197193705426 0.001753477491253055626022062 2.476030863531056169790645
4.081111565674445884610577 -0.0192036371304020979378091 2.467151658926052260056849
4.089836645494019151669818 -0.03508681082458643685217936 2.464478133097838696841109
4.075407929866670997398614 -0.002691095249164882421966105 2.475562054652100663076908
4.075407929866670997398614 0.002691095249164813033027066 2.475562054652100218987698
4.081111565674445884610577 0.01920363713040205283499873 2.467151658926052704146059
4.089836645494019151669818 0.03508681082458642297439155 2.464478133097838696841109
4.08586140034387845787478 -0.006197012809028555092860646 2.457941586847092185763586
4.079843080442577374356006 0.01125314683012041717946605 2.465883173694184637980698
4.08586140034387845787478 0.02870330646926941980945358 2.457941586847092185763586
4.074139444634803375322463 0.0001541247854294049222500379 2.474293569420233041000756
4.074454128728328683450854 -0.0007834929724823526744903468 2.474762378299188547714493
4.126979332164109948166697 -0.01773596293359226347408075 2.494715295097702068005674
4.121416723435501694439154 0.005027960595145587047172242 2.489430590195404580100558
4.126979332164109948166697 0.02779188412388343756842524 2.494715295097702068005674
4.116132018533203762444828 -0.03943059019540452736496405 2.483316689449914349552273
4.116132018533203762444828 0.03943059019540452042607015 2.483316689449914349552273
4.105284704902297576722958 0.01663337889982830983259809 2.471918083802126187009662
4.110569409804595508717284 -0.006130544628909544158101852 2.478031984547616417557947
4.105284704902297576722958 -0.02889446815764740161824875 2.471918083802126187009662
4.281547710613843094051845 0.001155997774090310918973512 2.469608287160248050184919
4.279140853637489527727666 -0.005969711726797173600989055 2.47317114191069187256744
4.268697130650199511592291 -0.01491773424778104935317646 2.484489331107423204514362
4.260660264639263949959513 -0.03274039868853804990944667 2.492244665553711602257181
4.260660264639263949959513 0.002904930192975955106221564 2.492244665553711602257181
4.271512670556358415296927 -0.02379237616755417589198274 2.465542958829561648315121
4.269008944404799166250086 -0.03930304506013050647172946 2.456631626609182994513958
4.261068947569069287339971 -0.03448933110742366525691693 2.476861148026293424351252
4.261068947569070175518391 0.03448933110742366525691693 2.476861148026293424351252
4.276637127485930278680826 0.02379237616755414813640712 2.464259809690313218766278
4.266602087428446488104328 0.03448933110742366525691693 2.46019448135962726098569
4.279043984462283845005004 -0.01666666666666669766039277 2.460696954939869396383756
4.274133401334371917812405 -0.01454840946889599841151952 2.455348477469934564965115
4.274133401334371917812405 0.01878492386443732925505046 2.455348477469934564965115
4.140333474806725533312601 -0.001864577718436836355556108 2.542198052525163731729663
4.131869658615617169061807 0.0158648606652245852122185 2.534396105050327641095009
4.140333474806726421491021 0.03359429904888602824719612 2.542198052525163731729663
4.131249431211877265468502 -0.03820011827622614430932657 2.520402117580971435018
4.128204065055807170381286 -0.02259622332655425447356379 2.529266836772802395927329
4.13856988785986601442346 -0.03439610505032811293979478 2.540033562577582060271197
4.128204065055806282202866 0.02259622332655421284020036 2.529266836772801951838119
4.13856988785986601442346 0.03439610505032808518421916 2.540033562577581172092778
4.131249431211877265468502 0.03820011827622612349264486 2.520402117580971435018
4.127594568123698515194064 -0.01650549101441389082678413 2.505899940861886499021693
4.122647195354678828493888 0.005027960595145567965214006 2.511799881723773442132597
4.127594568123698515194064 0.0265614122047050441044469 2.505899940861886499021693
4.119601829198609621585092 0.00106277171699473756832921 2.520664600915604403041925
4.121503835811559213198052 -0.004866784942892833989991352 2.52362937924554842084035
4.243020189562011879047532 0.006460729243655158673953487 2.51344053968164260481899
4.236040379124024646273483 -0.01666666666666664908813544 2.52125055418383947625216
4.243020189562011879047532 -0.02687260408967816899261649 2.51344053968164260481899
4.221353219768080755613937 -0.01270765204522028568590031 2.536040379124024468637799
4.21364587085012409772844 -0.03208136450257824401344209 2.543020189562012145501058
4.213645870850125874085279 0.006666060412137665702747569 2.543020189562011701411848
4.229109368711148064789995 -0.03604037912402461435457113 2.514319543770963338857882
4.214422209355204174130449 -0.03604037912402462129346503 2.529109368711147887154311
4.214422209355204174130449 0.03604037912402462823235894 2.529109368711147887154311
4.229109368711148064789995 0.03604037912402462129346503 2.514319543770963338857882
4.256933553646362611289078 -0.03846824609273469253167832 2.506059087436919519120693
4.256059087436920407299112 -0.03846824609273469253167832 2.507935929163401578279036
4.256059087436920407299112 0.03846824609273456763158805 2.507935929163401578279036
4.256933553646362611289078 0.03846824609273456763158805 2.506059087436919519120693
4.257514809372517916585821 -0.03671931367384907718420806 2.50576587695363262042747
4.262406220116708333023325 -0.01491773424778117425326673 2.51153175390726524085494
4.257514809372517916585821 0.006883845178286857047211811 2.50576587695363262042747
4.26153175390726524085494 -0.01291298321370292628840204 2.513408595633746855924073
4.25576587695363262042747 0.008888596212365105012076505 2.509519560406596294654946
4.25576587695363262042747 -0.03471456263977083095406684 2.509519560406596294654946
4.147326332290102612887495 -0.01578881110719482921966872 2.553112595489632319356588
4.148663166145050595901012 0.01487085451624170842621631 2.552214689414419979129889
4.148663166145050595901012 -0.04644847673063127319048604 2.552214689414419979129889
4.148262263144329331510107 -0.04732633229010320408125523 2.551775761634684336343071
4.148262263144330219688527 0.04732633229010311387563448 2.551775761634683892253861
4.14692542928938134849659 -0.01666666666666676011043791 2.55267366770989667656977
4.147861360143608067119203 0.01319119295532772406787103 2.551336833854947805377833
4.147861360143608067119203 0.04652452628866104999971753 2.551336833854947805377833
4.192065225705229991604028 0.002397549424943805525256568 2.560332323719712199761034
4.184130451410461581929212 -0.01666666666666664908813544 2.568264000417702863643399
4.192065225705229991604028 -0.03093578390838953168229253 2.560332323719712199761034
4.175248370621752691533857 -0.001097494910751080745073271 2.576345865532504664230373
4.174301064127812210813318 0.0007971180771288741227081909 2.576496053949315800934983
4.175713706807760772221627 -0.03413045141046216340852126 2.559847255815002942114234
4.166516478249855381932321 -0.01856127965454659745070387 2.568052900940342553326445
4.159047040141094164766855 -0.03413045141046215646962736 2.559485967920831051003461
4.166831626019051881826272 0.01856127965454664255351425 2.567929120929804298611998
4.158099733647153684046316 0.03443082824408445763442188 2.55963615633764218770807
4.175713706807761660400047 0.03413045141046218422520298 2.559847255815002498025024
4.157784585877957184152365 0.001975350470223055654450661 2.559759936348180886511727
4.165569171755914013033362 -0.01578881110719471125847235 2.568203089357153690031055
4.157784585877957184152365 -0.03355297268461250592697098 2.559759936348180886511727
4.225211044219156164558626 2.866653194584385238316906e-05 2.57481762231278921149169
4.225127022008537736041944 -0.000196710953184177209963901 2.574930311055354081872792
4.22499158769242111333142 -7.415767904878816166314159e-05 2.575065745371470260494107
4.224940175586923807315998 2.866653194584487559896935e-05 2.575088490945021568734319
4.217097220723971418010478 -0.01689204415179669516167138 2.566900509770787763841327
4.210729061435388054235318 -0.03353004428651751994694408 2.55855284317148123918173
4.216643921093115032761034 -0.01676949087766130275234389 2.567518294446071269732101
4.20866553191404690892341 -0.03336199986527918492917877 2.559465747587953643460423
4.216961786407854795299954 0.01676949087766130275234389 2.567035944086903942462641
4.208614119808548714729568 0.03340749101238212059872268 2.559488493161504951700636
4.218758862719955260445204 0.01689204415179668822277748 2.566582644456047113123986
4.210645039224769625718636 0.03336199986527918492917877 2.558665531914046109562832
4.218842884930573688961886 -0.01666666666666666990481716 2.566469955713482242742884
4.212390703431371008491624 -0.02917760775870279280064246 2.5582349778567410325536
4.212390703431371008491624 0.004155725574630545274268378 2.5582349778567410325536
4.208296254493808064012228 0.001674589026863742115616707 2.559970843520672278970096