/*--------------------------------*- C++ -*----------------------------------*\
| =========                 |                                                 |
| \\      /  F ield         | OpenFOAM: The Open Source CFD Toolbox           |
|  \\    /   O peration     | Version:  v2012                                 |
|   \\  /    A nd           | Website:  www.openfoam.com                      |
|    \\/     M anipulation  |                                                 |
\*---------------------------------------------------------------------------*/
FoamFile
{
    version     2.0;
    format      ascii;
    class       volScalarField;
    location    "1.8";
    object      alpha.water;
}
// * * * * * * * * * * * * * * * * * * * * * * * * * * * * * * * * * * * * * //

dimensions      [0 0 0 0 0 0 0];


internalField   nonuniform List<scalar> 
96000
(
0
0
0
0
0
0
0
0
0
0
0
0
0
0
0
0
0
0
0
0
0
0
0
0
0
0
0
0
0
0
0
0
0
0
0
0
0
0
0
0
0
0
0
0
0
0
0
0
0
0
0
0
0
0
0
0
0
0
0
0
0
0
0
0
0
0
0
0
0
0
0
0
0
0
0
0
0
0
0
0
0
0
0
0
0
0
0
0
0
0
0
0
0
0
0
0
0
0
0
0
0
0
0
0
0
0
0
0
0
0
0
0
0
0
0
0
0
0
0
0
0
0
0
0
0
0
0
0
0
0
0
0
0
0
0
0
0
0
0
0
0
0
0
0
0
0
0
0
0
0
0
0
0
0
0
0
0
0
0
0
0
0
0
0
0
0
0
0
0
0
0
0
0
0
0
0
0
0
0
0
0
0
0
0
0
0
0
0
0
0
0
0
0
0
0
0
0
0
0
0
0
0
0
0
0
0
0
0
0
0
0
0
0
0
0
0
0
0
0
0
0
0
0
0
0
0
0
0
0
0
0
0
0
0
0
0
0
0
0
0
0
0
0
0
0
0
0
0
0
0
0
0
0
0
0
0
0
0
0
0
0
0
0
0
0
0
0
0
0
0
0
0
0
0
0
0
0
0
0
0
0
0
0
0
0
0
0
0
0
0
0
0
0
0
0
0
0
0
0
0
0
0
0
0
0
0
0
0
0
0
0
0
0
0
0
0
0
0
0
0
0
0
0
0
0
0
0
0
0
0
0
0
0
0
0
0
0
0
0
0
0
0
0
0
0
0
0
0
0
0
0
0
0
0
0
0
0
0
0
0
0
0
0
0
0
0
0
0
0
0
0
0
0
0
0
0
0
0
0
0
0
0
0
0
0
0
0
0
0
0
0
0
0
0
0
0
0
0
0
0
0
0
0
0
0
0
0
0
0
0
0
0
0
0
0
0
0
0
0
0
0
0
0
0
0
0
0
0
0
0
0
0
0
0
0
0
0
0
0
0
0
0
0
0
0
0
0
0
0
0
0
0
0
0
0
0
0
0
0
0
0
0
0
0
0
0
0
0
0
0
0
0
0
0
0
0
0
0
0
0
0
0
0
0
0
0
0
0
0
0
0
0
0
0
0
0
0
0
0
0
0
0
0
0
0
0
0
0
0
0
0
0
0
0
0
0
0
0
0
0
0
0
0
0
0
0
0
0
0
0
0
0
0
0
0
0
0
0
0
0
0
0
0
0
0
0
0
0
0
0
0
0
0
0
0
0
0
0
0
0
0
0
0
0
0
0
0
0
0
0
0
0
0
0
0
0
0
0
0
0
0
0
0
0
0
0
0
0
0
0
0
0
0
0
0
0
0
0
0
0
0
0
0
0
0
0
0
0
0
0
0
0
0
0
0
0
0
0
0
0
0
0
0
0
0
0
0
0
0
0
0
0
0
0
0
0
0
0
0
0
0
0
0
0
0
0
0
0
0
0
0
0
0
0
0
0
0
0
0
0
0
0
0
0
0
0
0
0
0
0
0
0
0
0
0
0
0
0
0
0
0
0
0
0
0
0
0
0
0
0
0
0
0
0
0
0
0
0
0
0
0
0
0
0
0
0
0
0
0
0
0
0
0
0
0
0
0
0
0
0
0
0
0
0
0
0
0
0
0
0
0
0
0
0
0
0
0
0
0
0
0
0
0
0
0
0
0
0
0
0
0
0
0
0
0
0
0
0
0
0
0
0
0
0
0
0
0
0
0
0
0
0
0
0
0
0
0
0
0
0
0
0
0
0
0
0
0
0
0
0
0
0
0
0
0
0
0
0
0
0
0
0
0
0
0
0
0
0
0
0
0
0
0
0
0
0
0
0
0
0
0
0
0
0
0
0
0
0
0
0
0
0
0
0
0
0
0
0
0
0
0
0
0
0
0
0
0
0
0
0
0
0
0
0
0
0
0
0
0
0
0
0
0
0
0
0
0
0
0
0
0
0
0
0
0
0
0
0
0
0
0
0
0
0
0
0
0
0
0
0
0
0
0
0
0
0
0
0
0
0
0
0
0
0
0
0
0
0
0
0
0
0
0
0
0
0
0
0
0
0
0
0
0
0
0
0
0
0
0
0
0
0
0
0
0
0
0
0
0
0
0
0
0
0
0
0
0
0
0
0
0
0
0
0
0
0
0
0
0
0
0
0
0
0
0
0
0
0
0
0
0
0
0
0
0
0
0
0
0
0
0
0
0
0
0
0
0
0
0
0
0
0
0
0
0
0
0
0
0
0
0
0
0
0
0
0
0
0
0
0
0
0
0
0
0
0
0
0
0
0
0
0
0
0
0
0
0
0
0
0
0
0
0
0
0
0
0
0
0
0
0
0
0
0
0
0
0
0
0
0
0
0
0
0
0
0
0
0
0
0
0
0
0
0
0
0
0
0
0
0
0
0
0
0
0
0
0
0
0
0
0
0
0
0
0
0
0
0
0
0
0
0
0
0
0
0
0
0
0
0
0
0
0
0
0
0
0
0
0
0
0
0
0
0
0
0
0
0
0
0
0
0
0
0
0
0
0
0
0
0
0
0
0
0
0
0
0
0
0
0
0
0
0
0
0
0
0
0
0
0
0
0
0
0
0
0
0
0
0
0
0
0
0
0
0
0
0
0
0
0
0
0
0
0
0
0
0
0
0
0
0
0
0
0
0
0
0
0
0
0
0
0
0
0
0
0
0
0
0
0
0
0
0
0
0
0
0
0
0
0
0
0
0
0
0
0
0
0
0
0
0
0
0
0
0
0
0
0
0
0
0
0
0
0
0
0
0
0
0
0
0
0
0
0
0
0
0
0
0
0
0
0
0
0
0
0
0
0
0
0
0
0
0
0
0
0
0
0
0
0
0
0
0
0
0
0
0
0
0
0
0
0
0
0
0
0
0
0
0
0
0
0
0
0
0
0
0
0
0
0
0
0
0
0
0
0
0
0
0
0
0
0
0
0
0
0
0
0
0
0
0
0
0
0
0
0
0
0
0
0
0
0
0
0
0
0
0
0
0
0
0
0
0
0
0
0
0
0
0
0
0
0
0
0
0
0
0
0
0
0
0
0
0
0
0
0
0
0
0
0
0
0
0
0
0
0
0
0
0
0
0
0
0
0
0
0
0
0
0
0
0
0
0
0
0
0
0
0
0
0
0
0
0
0
0
0
0
0
0
0
0
0
0
0
0
0
0
0
0
0
0
0
0
0
0
0
0
0
0
0
0
0
0
0
0
0
0
0
0
0
0
0
0
0
0
0
0
0
0
0
0
0
0
0
0
0
0
0
0
0
0
0
0
0
0
0
0
0
0
0
0
0
0
0
0
0
0
0
0
0
0
0
0
0
0
0
0
0
0
0
0
0
0
0
0
0
0
0
0
0
0
0
0
0
0
0
0
0
0
0
0
0
0
0
0
0
0
0
0
0
0
0
0
0
0
0
0
0
0
0
0
0
0
0
0
0
0
0
0
0
0
0
0
0
0
0
0
0
0
0
0
0
0
0
0
0
0
0
0
0
0
0
0
0
0
0
0
0
0
0
0
0
0
0
0
0
0
0
0
0
0
0
0
0
0
0
0
0
0
0
0
0
0
0
0
0
0
0
0
0
0
0
0
0
0
0
0
0
0
0
0
0
0
0
0
0
0
0
0
0
0
0
0
0
0
0
0
0
0
0
0
0
0
0
0
0
0
0
0
0
0
0
0
0
0
0
0
0
0
0
0
0
0
0
0
0
0
0
0
0
0
0
0
0
0
0
0
0
0
0
0
0
0
0
0
0
0
0
0
0
0
0
0
0
0
0
0
0
0
0
0
0
0
0
0
0
0
0
0
0
0
0
0
0
0
0
0
0
0
0
0
0
0
0
0
0
0
0
0
0
0
0
0
0
0
0
0
0
0
0
0
0
0
0
0
0
0
0
0
0
0
0
0
0
0
0
0
0
0
0
0
0
0
0
0
0
0
0
0
0
0
0
0
0
0
0
0
0
0
0
0
0
0
0
0
0
0
0
0
0
0
0
0
0
0
0
0
0
0
0
0
0
0
0
0
0
0
0
0
0
0
0
0
0
0
0
0
0
0
0
0
0
0
0
0
0
0
0
0
0
0
0
0
0
0
0
0
0
0
0
0
0
0
0
0
0
0
0
0
0
0
0
0
0
0
0
0
0
0
0
0
0
0
0
0
0
0
0
0
0
0
0
0
0
0
0
0
0
0
0
0
0
0
0
0
0
0
0
0
0
0
0
0
0
0
0
0
0
0
0
0
0
0
0
0
0
0
0
0
0
0
0
0
0
0
0
0
0
0
0
0
0
0
0
0
0
0
0
0
0
0
0
0
0
0
0
0
0
0
0
0
0
0
0
0
0
0
0
0
0
0
0
0
0
0
0
0
0
0
0
0
0
0
0
0
0
0
0
0
0
0
0
0
0
0
0
0
0
0
0
0
0
0
0
0
0
0
0
0
0
0
0
0
0
0
0
0
0
0
0
0
0
0
0
0
0
0
0
0
0
0
0
0
0
0
0
0
5.104455527335802453169747e-59
9.278953398164352995713035e-57
8.234781037790657789855018e-55
4.812276465157780820524192e-53
2.055909758575284728181555e-51
6.354781311074208656117072e-50
1.489200412929914073393378e-48
3.392376255967700640843696e-47
9.722745683756668478215105e-46
2.755129157298696414706028e-44
8.663950510104333524700692e-43
1.411124738236881038594635e-41
9.162963664875675116262842e-34
1.067957643616414539267052e-33
1.168045611970496922819358e-33
1.263226543690467416384064e-33
1.362271669539996607723957e-33
1.467498885069470391889721e-33
1.579818608891806128086612e-33
1.699833045674578525790063e-33
1.82809589276006074998979e-33
1.965177328003522850228538e-33
2.111680463291370074861693e-33
2.268239105091286025662918e-33
2.435521163133292432824255e-33
2.614278298957772348959954e-33
2.805383045380767208544949e-33
3.009627334000137717583534e-33
3.227398907199025110226722e-33
3.459344706191875953162986e-33
3.708465323447056120139123e-33
3.979582992409194526668905e-33
4.270184297384342618240919e-33
4.562714698048061366273414e-33
4.850566192323505753295312e-33
5.189102761334815222937387e-33
5.724897048699578610304113e-33
6.526130714636742005885282e-33
7.052819390412759067028595e-33
7.11848030226884247739217e-33
7.116606876587175534466331e-33
7.105401609931305107573116e-33
7.075994616625309145763975e-33
7.020731702836253061005883e-33
6.926961891961891860449618e-33
6.769206486968379508930273e-33
6.565967951585439136930989e-33
6.45690075826630408114835e-33
6.444378490355522161849142e-33
6.444304557454076129881981e-33
6.444693295039083272503954e-33
6.446091230592137613041811e-33
6.447148627832759454485139e-33
6.446811665597931319145068e-33
6.441860985240089335131952e-33
6.42150986346358341226145e-33
6.371326233774006752218567e-33
6.280994413744872609588996e-33
6.149629678383064714658993e-33
5.983081757785920144335361e-33
5.788213249401005867356394e-33
5.572214619613379140890211e-33
5.3452910338262902665903e-33
5.118052158652983845534385e-33
4.891908848762191353165185e-33
4.651000719420212520347943e-33
4.357097592726111802274142e-33
3.938477636457396767743953e-33
3.286116230724554809169024e-33
2.37828874504271650975536e-33
1.551994154704784025618663e-33
1.222685466695819418384352e-33
1.00660386501687602529234e-33
8.830500788669491938331181e-33
2.459075192049615831438508e-31
3.954804937838349208186996e-30
4.121997501893233493378037e-29
3.078064430423623989162771e-28
1.730568339335339209642658e-27
7.389651792743682454896918e-27
2.214688015464565054922103e-26
3.788079490580735191821415e-26
4.009188878551935948730385e-26
3.720298514451617686018593e-26
2.551109059492114900960184e-26
8.726881133534158902644367e-27
8.535591179242293667930454e-28
1.271357742243054220685026e-29
1.578752957049059835839082e-32
9.192041323127277585900558e-37
2.220006850445076696745495e-41
6.007874841334461610034024e-46
1.665180181207466540698529e-50
4.339782907033714940350665e-55
1.086689365876039007147073e-59
2.706217397561538633883859e-64
6.858000764880772002900072e-69
1.763253784136342922716358e-73
4.516530207984961572589772e-78
1.139443390305475815329245e-82
2.839283665849261053537069e-87
7.050065601362845282600372e-92
1.752235716967486999037968e-96
4.349539895716873586782717e-101
1.073604437256520824012098e-105
2.629714329389151906301143e-110
6.39798348050788718442184e-115
1.548827352890876191420681e-119
3.732391982253806205274553e-124
8.944264458027795325104158e-129
2.12848865732072775949245e-133
5.026188893092927668494156e-138
1.177627674753469410349037e-142
2.737007540563352235737642e-147
1.62077588012458245115849e-149
3.896024279536950293976559e-150
1.182596166354504925070086e-150
3.798606941808579861046445e-151
1.172001409326768108105752e-151
3.442336879570899380286556e-152
9.631011647956721062277188e-153
2.563694631838468682491845e-153
6.48991094891669350206008e-154
1.563136128799864815773304e-154
3.585066132993620125064875e-155
7.836825173929318675121353e-156
1.634383830238119087993454e-156
3.25528103316136613375806e-157
6.198770194585041388998975e-158
1.129728414908954781703479e-158
1.972729649043983056744034e-159
3.304183164586991930148993e-160
5.314311740599920622925026e-161
8.216878444016536996848072e-162
1.222768933222230057661393e-162
1.753375060974988248953539e-163
2.425678002677003659339716e-164
3.241759099540697773352979e-165
4.190955376731267109602043e-166
5.248900156888743608359043e-167
6.378774245219225565277253e-168
7.534821940379634610309466e-169
8.667657785268060135382642e-170
9.730465430387785891920028e-171
1.068503728844456012030264e-171
1.150685671726186463119737e-172
1.218920948056497088610257e-173
1.274788706654602960707805e-174
1.323115103624686345986211e-175
1.374624617308868556323387e-176
1.452874571538759906735953e-177
1.611571576663356409993587e-178
1.976371300591161886351527e-179
2.843475536146345822310261e-180
4.908142727714296996275344e-181
9.78618919560327758142282e-182
2.11867903359909328155515e-182
4.751197355906766231516558e-183
1.075353531949962369838022e-183
2.426286236732004537665453e-184
5.427050744609045614948327e-185
1.200472694567450383598478e-185
2.623244998316519145685746e-186
5.66003333294941656728561e-187
1.20560914100774773286922e-187
2.534952133123248630159066e-188
5.261417532777176119286684e-189
1.077984037366940293700083e-189
2.180277387248256529484e-190
4.353292237837791662693377e-191
8.58122485152993300500336e-192
1.670036525309996583184325e-192
3.208989896601004597447568e-193
6.088316374323596814731693e-194
1.140600296230974093077088e-194
2.110075897122843609920273e-195
3.854888573114408063111759e-196
6.954972182644968417792112e-197
1.23927936857682481670774e-197
2.180988980630242602607016e-198
3.791124366428359667372909e-199
6.509272574892941918118466e-200
1.103992102554623942151627e-200
1.849640884572834087413208e-201
3.061366298610193860364032e-202
5.005733430847450506549778e-203
8.086533801263013188079698e-204
1.290674394090523582051255e-204
2.035389462605507709561022e-205
3.171549049184000959861963e-206
4.883200660703486433857188e-207
7.429552977190319991488414e-208
1.117020441329260705637017e-208
1.659643592333876005254084e-209
2.436903765229776336051365e-210
3.536274100552265954803452e-211
5.07167282499752645289687e-212
7.188986846298845365500226e-213
1.007182789255364900406352e-213
1.39471561549606526094417e-214
1.909026793948446550934553e-215
2.582850283300540011780716e-216
3.454289801515112032646387e-217
4.566692257769323121687073e-218
5.968138610100553352350339e-219
7.710465724640658625435428e-220
9.847747157416298467766957e-221
1.243418691117857642655621e-221
1.552141873339047634917346e-222
1.915525363627436207340236e-223
2.33719775914076944251133e-224
2.819436555446146145382808e-225
3.362764121687431526964478e-226
3.965566698584193757351179e-227
4.623768786853338181899136e-228
5.330596867040146741300283e-229
6.076465002903458211476806e-230
6.849010150406725740595305e-231
7.633296874692620477637857e-232
8.412200010872633430475558e-233
9.166960339841267575851147e-234
9.877893702967377080947051e-235
1.052521953589332646932693e-235
1.108996207513234753734602e-236
1.155486794484593005397072e-237
1.19052786911368518745825e-238
1.212989691546624891063086e-239
1.222139024977170313649298e-240
1.217678819616927680341558e-241
1.199764191913256305371846e-242
1.168993502691476219640367e-243
1.126375247257711513768787e-244
1.073273307134115461688449e-245
1.011334698786089148093164e-246
9.424051412542485355847661e-248
8.684384506058001251167975e-249
7.91405910322995620523153e-250
7.13211378706747227043426e-251
6.356170475036763836282585e-252
5.601835738791873835376613e-253
4.882269112174068215251855e-254
4.207927124016282936095052e-255
3.586478125843976177788786e-256
3.022871334389523095599904e-257
2.519534696739888634031478e-258
2.076670641205377535886436e-259
1.692616540688780767553901e-260
1.364237490445645255959428e-261
1.087322237136306011201168e-262
8.569580858278802948645359e-264
6.678665998221954529090153e-265
5.146881783588757215111241e-266
3.922095422512994180726209e-267
2.955333232842682805879382e-268
2.201930557953930389305381e-269
1.622197884391450385465903e-270
1.181682912570508997804164e-271
8.511155447263744988457902e-273
6.06121551020907368995939e-274
4.26783305236041338719199e-275
2.971146927749660994741584e-276
2.045040994637619609534508e-277
1.391659272588195690095061e-278
9.362855148386204402483099e-280
6.227579831349481345848011e-281
4.095026180301754043289295e-282
2.662017155948781999884276e-283
1.710692099759455096575039e-284
1.086749271409655344627456e-285
6.824528906370968174477011e-287
4.23633929931672070958712e-288
2.599393809884728084455883e-289
1.576539544907592883570452e-290
9.450980574988336305537062e-292
5.599837934552079492077387e-293
3.279348732294896316353278e-294
1.898015995844438268521897e-295
1.085671419536431124850313e-296
6.137181190947015688874131e-298
3.428441910025659523027042e-299
1.892634837074809794331024e-300
1.032436819787931270495329e-301
5.565071513891802757917189e-303
2.96395880112787878529233e-304
1.559734937738732379710809e-305
8.109410237929594416658e-307
4.165524626856525412087057e-308
2.113847989614809609892503e-309
1.059699097598549039122645e-310
5.247794139279156828711394e-312
2.567063241786711770528386e-313
1.240342178991602815831349e-314
5.919304999934633732822481e-316
2.789989690196810917458172e-317
1.298656490750174953833553e-318
5.978194314679083184536482e-320
2.717361052126855992971128e-321
8.399115979301191251001669e-323
0
0
0
0
0
0
0
0
0
0
0
0
0
0
0
0
0
0
0
0
0
0
0
0
0
0
0
0
0
0
0
0
0
0
0
0
0
0
0
0
0
0
0
0
0
0
0
0
0
0
0
0
0
0
0
0
0
0
0
0
0
0
0
0
0
0
0
0
0
0
0
0
0
0
0
0
0
0
0
0
0
0
0
0
0
0
0
0
0
0
0
0
0
0
0
0
0
0
0
0
0
1.216301063331371192038474e-59
8.197963249772538248323055e-57
1.269275814277302260184455e-54
1.045761835364548299306548e-52
5.819232809560098821706186e-51
2.446956210149533639615041e-49
7.934019520130788061718216e-48
2.020920990567137643674134e-46
4.333818530116626042575811e-45
9.450249661923795511383152e-44
2.123911560981652984994985e-42
6.007543440054367593234984e-41
9.95459178861097199717545e-40
3.390011106491501406453135e-32
4.268949672386510296972483e-32
4.946192733196150084495276e-32
5.63753654287779761582424e-32
6.390422733053461553582538e-32
7.221176877372046281473045e-32
8.139472796148424908753612e-32
9.153886881591068185697206e-32
1.02732632866219854935284e-31
1.15070896918779621188519e-31
1.286562596188403477285704e-31
1.435996147229506883099378e-31
1.60021226623196736888671e-31
1.780531495255554648596241e-31
1.978395125747423462879249e-31
2.195288898008657883801456e-31
2.432707360069586699626387e-31
2.692507385761563597048865e-31
2.977457643008455540375585e-31
3.290452776360984981976269e-31
3.631611134311001471615523e-31
3.997914661346330200402781e-31
4.392412706954796286221136e-31
4.8364797425551270999743e-31
5.362431318389117334993589e-31
5.971181689214812746675295e-31
6.602949709801756090865347e-31
7.191329229072343332815922e-31
7.704847310423865382688539e-31
8.128558908525645049536339e-31
8.468303127723684720582247e-31
8.786602347393873909257906e-31
9.234060932023061518283425e-31
1.009569554090248196158499e-30
1.133795857860589807869425e-30
1.191692836155747601748076e-30
1.194866985424759296152405e-30
1.194249430304410199199238e-30
1.191236900363313069212708e-30
1.182336205505390877164234e-30
1.162502635635147187624296e-30
1.132331120106554116698464e-30
1.107227608932330456971362e-30
1.095847395654863635894715e-30
1.090402885438542232156712e-30
1.085037427515343886593918e-30
1.076354746244328648292417e-30
1.060625245552398397434167e-30
1.033760481082618435743919e-30
9.927597945983405825580463e-31
9.372099613345012276745407e-31
8.686433416121004313198424e-31
7.880065594436448967976438e-31
6.944711803629692491473658e-31
5.872341928384595657628869e-31
4.701219653091067169071978e-31
3.578188624716174096353878e-31
2.727489116023705563690017e-31
2.217865402548034303784954e-31
1.923265159549291169371208e-31
1.429183343997792717370066e-31
1.906468468736253697560424e-30
5.24992067356762867038692e-29
7.761928663558302901702279e-28
7.422625121515617584950061e-27
5.078130342159874693740504e-26
2.594953699357898154659997e-25
9.740040404746211284959265e-25
2.319424028636553191085496e-24
3.010160364734994933362496e-24
2.964465413812780124530289e-24
2.456517339830066511838472e-24
1.268662634323823131617761e-24
2.537953735519619091779297e-25
1.087085238740968220783227e-26
5.44850388072717769608853e-29
1.736346458890497356138439e-32
5.137078792026750243902883e-37
1.398379993569642368709164e-41
3.65609666729761861106858e-46
9.484292675967986925051075e-51
2.506307096619584948337047e-55
6.723201761063650773234794e-60
1.79643343954160732741255e-64
4.737743196898892654893561e-69
1.236147835642796555305723e-73
3.20504744476736299926059e-78
8.279862898420252537252092e-83
2.13266359421653033765476e-87
5.470687081765368543249271e-92
1.395193616890892612990749e-96
3.533707087737880954969136e-101
8.888117061575338481430175e-106
2.221442414412286101123031e-110
5.519839734401126915333528e-115
1.363389272951177731161444e-119
3.344977574294899952905288e-124
8.145007780107203322619772e-129
1.96747911855956519016251e-133
4.713968645699156839933956e-138
1.120107274250269469437067e-142
2.650640325729526361965222e-147
2.194451049503981224102034e-149
6.501115327135550505700203e-150
2.278942311118444088685304e-150
7.953891849194416370964307e-151
2.621776703521684269348568e-151
8.133790099539880284397616e-152
2.376815135210631042517996e-152
6.54812314865978698833113e-153
1.703674472125801157788728e-153
4.194254032661346887422747e-154
9.789130471278915154179212e-155
2.169820806597976273445175e-155
4.575280244833630571648826e-156
9.192034744244003733517944e-157
1.762219542512343658179674e-157
3.228430416574680732514082e-158
5.65998346529983453129635e-159
9.508827382057126903498268e-160
1.532903867226639271434321e-160
2.374463870395932024887168e-161
3.538918320795143240351599e-162
5.081991495653058342040594e-163
7.041747518660915557851334e-164
9.428972555509947076450875e-165
1.222022915311776802681831e-165
1.535567333487948427881508e-166
1.87429233961745120969342e-167
2.226702309522178400309509e-168
2.580527576494812429098195e-169
2.924504962191505312808692e-170
3.250336150441536825319457e-171
3.555036992701861771262679e-172
3.84474281402427652484865e-173
4.143033547846657518887295e-174
4.511536693604422117679724e-175
5.101686400450738735529029e-176
6.282817178615049400404963e-177
8.95335389385284047773557e-178
1.528406424108940425641263e-178
3.046572500324293940186651e-179
6.675754384356185653885683e-180
1.527283046274203026692011e-180
3.540441035519832789599804e-181
8.195505032019987766525023e-182
1.881942527242921771767277e-182
4.274488761275577713843711e-183
9.590815557860043040886173e-184
2.124616834592567748336201e-184
4.645789312448404967582069e-185
1.002665208388342527896461e-185
2.135813803900980639866858e-186
4.490447935645547252480956e-187
9.318581201731656958768688e-188
1.908809285447051241384958e-188
3.859656675663070549855085e-189
7.704244750356858210398512e-190
1.518200661990921841448531e-190
2.953715847271026727155028e-191
5.673766779605407358428697e-192
1.076118808268700653652883e-192
2.015382741507379570953529e-193
3.727226629649693163092476e-194
6.807178374196616735003019e-195
1.227787859703281203347488e-195
2.187136477424175166583819e-196
3.848095941761278485305916e-197
6.687350623304373928816932e-198
1.147944360594988019383781e-198
1.946552277736717455452717e-199
3.260688651556965198846925e-200
5.395972713312765148652974e-201
8.821978999429656429087071e-202
1.42500519215567072267e-202
2.274253632883182011769665e-203
3.586334731800293386872397e-204
5.588165433189176526148469e-205
8.604206206946746079745187e-206
1.309156870330970097733657e-206
1.968464921533471648810966e-207
2.925055835173645804657859e-208
4.295622440309778106951932e-209
6.234736072658433820464588e-210
8.943844555770530244549476e-211
1.268114243613150953628846e-211
1.777190024997550629526318e-212
2.461861924929123782520627e-213
3.371013247536163099322064e-214
4.562852112847014216890365e-215
6.105248397838479588852339e-216
8.075562195657652143749983e-217
1.055980206083907268367027e-217
1.365095723040255541107819e-218
1.74463717288416714334539e-219
2.204407272680518068938597e-220
2.753803198062083437525816e-221
3.40124265090127088021603e-222
4.15350688389909287103674e-223
5.015029100674977964885167e-224
5.987167987443258829559472e-225
7.067516170573124171995309e-226
8.249300757948462433674121e-227
9.520936466868913102388838e-228
1.086579003654096231183295e-228
1.226220694002161173181443e-229
1.368383768693466376436e-230
1.51002817640054988024247e-231
1.647804373315386234824673e-232
1.778177009528995190851644e-233
1.897570963547129960718755e-234
2.002531675580950742427757e-235
2.089889939530059648884713e-236
2.156920277489949235272548e-237
2.201481895478823594377277e-238
2.222132069293070522680363e-239
2.218203594518534865063387e-240
2.189840509548126894770174e-241
2.137989429211561057940469e-242
2.064347209019198719758359e-243
1.971268966475678396341287e-244
1.861643396468579627671675e-245
1.738744559766120492053692e-246
1.606070702754229310263695e-247
1.467181086835508748781212e-248
1.325541276949403564612075e-249
1.184385968998989228112031e-250
1.046606414415875362060735e-251
9.146670685890752611434674e-253
7.90553511575823757860099e-254
6.757512172238314249034606e-255
5.712525956933606101931172e-256
4.775880620294735849202553e-257
3.948757794806835353288815e-258
3.228842111720285163136588e-259
2.611016462563306638842584e-260
2.088073574566616609588802e-261
1.651398758568357612541613e-262
1.291589030967198976723478e-263
9.989849182315797713298387e-265
7.641020029434979406054752e-266
5.779587998915762068905206e-267
4.323052906768265570767936e-268
3.197621206478212920428208e-269
2.338840559369293478906566e-270
1.691629954949781253767119e-271
1.209859526529453736452971e-272
8.55623511798957812171383e-274
5.983312201618909755404213e-275
4.137180652198759224913465e-276
2.82854767935755501250018e-277
1.912100466666100325562791e-278
1.278020247519330553729403e-279
8.445704280773818058502647e-281
5.518182354980970034366531e-282
3.564583873229934668772567e-283
2.27648319581614288790423e-284
1.437317529247702547362572e-285
8.971460051668786008342195e-287
5.535855671037356860912948e-288
3.376807693243571018040818e-289
2.036179985128993598205092e-290
1.213674429985581528187077e-291
7.150756397681607324858397e-293
4.164402004786481904142827e-294
2.397126345954698305615402e-295
1.363807697583687055948704e-296
7.66876066236307903117767e-298
4.261794843791383557021532e-299
2.340670315305060489605121e-300
1.27043634961091831167898e-301
6.814197068391893480477839e-303
3.611680184411415875479772e-304
1.891559236865757969939246e-305
9.788799751869237025362123e-307
5.005184351508522496385861e-308
2.52856230990490482830895e-309
1.262035317172003743936506e-310
6.222923147286456537849619e-312
3.031256928540526467879411e-313
1.458600041629757546610826e-314
6.93288724345104070677975e-316
3.254879771519840170708026e-317
1.509212447038338993565281e-318
6.901108941110531729058313e-320
3.048385034840491177569429e-321
8.399115979301191251001669e-323
0
0
0
0
0
0
0
0
0
0
0
0
0
0
0
0
0
0
0
0
0
0
0
0
0
0
0
0
0
0
0
0
0
0
0
0
0
0
0
0
0
0
0
0
0
0
0
0
0
0
0
0
0
0
0
0
0
0
0
0
0
0
0
0
0
0
0
0
0
0
0
0
0
0
0
0
0
0
0
0
0
0
0
0
0
0
0
0
0
0
0
0
0
0
0
0
0
0
0
1.955524918174424527075037e-60
1.396630616247441727699375e-57
5.242872240980501120278915e-55
7.318633162839495412533957e-53
5.819829409001534286782606e-51
3.192761765600724194608037e-49
1.334877028026814898127273e-47
4.368182724661658239091537e-46
1.153507248209203540361664e-44
2.524445999217817009422781e-43
5.034703484192061929524534e-42
9.308559853716207542963114e-41
2.196497795228440620259827e-39
3.537770411266005000872589e-38
6.013054045082682523992047e-31
7.971336766736788350174438e-31
9.645570596147265746781516e-31
1.146528878316351559694026e-30
1.354766292018120740898779e-30
1.595143406993623115368732e-30
1.872520423316442262410268e-30
2.191897047418917543509422e-30
2.558730258406145729549626e-30
2.979053870779768956682319e-30
3.459551543233755254882338e-30
4.007622566912820938256401e-30
4.631463495258469531132749e-30
5.340167473730221317053694e-30
6.143772842435752808983998e-30
7.053220272553101774650143e-30
8.080509688725550478071457e-30
9.239476657136202367099233e-30
1.054637846813273102917118e-29
1.201794218668590494614852e-29
1.366747886138797010480498e-29
1.550749921831228415560037e-29
1.756550294560842605993109e-29
1.989731675718428881419353e-29
2.256692526488327305990261e-29
2.559282693782485720006886e-29
2.891964245326211580480658e-29
3.245169259473128015097428e-29
3.607769138385505497934001e-29
3.96550719022044214008524e-29
4.310118892804995321784913e-29
4.663574807291071439153097e-29
5.089433468406193473802376e-29
5.66063308006570911594945e-29
6.383541598623420812864197e-29
7.223212236557778611997864e-29
8.042738354563602817043031e-29
8.385894843416736577055349e-29
8.400366663887807183166756e-29
8.387056992287336095615677e-29
8.349679286646704771076315e-29
8.296927111700586251902368e-29
8.248084151968571614349847e-29
8.211300898289127374892971e-29
8.177828113045549095902309e-29
8.134089187423979778787183e-29
8.062992755994449905899261e-29
7.942891250012925603583302e-29
7.751014482649235026927543e-29
7.4675890319824167809476e-29
7.070729654437428464349591e-29
6.520425156391099515013042e-29
5.75317581941799677670543e-29
4.735327178392365680819792e-29
3.603921075014508067979631e-29
2.684396418692206526648747e-29
2.139763807351978956340097e-29
1.833202488004970751504468e-29
1.587871111822231553317579e-29
1.284672006639192031003184e-29
8.155031995390884529457929e-30
1.874535605522844332534798e-28
4.942171987148289248579286e-27
6.743742108715555899629657e-26
5.943251705050092595086419e-25
3.732517406813634017458173e-24
1.725549379982915439609807e-23
5.532738884897351256216929e-23
1.007227294219039029790765e-22
1.088606258186937801145734e-22
1.015205402590466578684301e-22
7.041085371300695778751852e-23
2.470119110605726191839295e-23
2.568485978144499544417714e-24
4.340604623226009576806042e-26
6.291886758901521048705033e-29
4.685181893063113715328908e-33
1.162137215847818997837856e-37
3.090498258913490713498871e-42
8.502220747423345436649729e-47
2.304269704186637191054348e-51
6.143429436294384558508512e-56
1.631258925954910632466782e-60
4.31678336291815289649879e-65
1.138123164063119210941745e-69
2.997383714533584483085676e-74
7.903685397877811046271643e-79
2.08459356548119811286803e-83
5.478685195630611822594091e-88
1.430414104848045218890902e-92
3.70993820618836645844628e-97
9.576760198713004123010326e-102
2.463514298731720937930096e-106
6.310998388359054862562653e-111
1.607290916844015985619898e-115
4.063822987809514979599197e-120
1.019625680994359147641347e-124
2.53920222983435992032911e-129
6.276488691800934127447648e-134
1.539094961826453947035311e-138
3.740549087958110308635955e-143
9.206290685823109472623635e-148
2.072759665515118220668579e-149
6.715321054803544881267348e-150
2.605219240441369462432698e-150
9.652098535737736766872825e-151
3.332432392845806677201802e-151
1.073229956227584339746634e-151
3.229114829147318038246333e-152
9.100216198252620460854128e-153
2.409645536858578575828019e-153
6.013031089987110138556451e-154
1.41789599558680742615887e-154
3.1670485870671248192762e-155
6.715427806875471974070982e-156
1.354473526315311191507383e-156
2.60346326793503870023629e-157
4.777208980318497810775671e-158
8.382249270760793431041774e-159
1.40866229196770849132298e-159
2.270880691864901275291525e-160
3.517210064182101105409468e-161
5.242016029572980265906797e-162
7.529878812302945534559164e-163
1.04420403902643947240819e-163
1.400374797206292988748949e-164
1.819558286178070066774169e-165
2.295155116572536679685466e-166
2.816568044088883196229191e-167
3.370761502281776441642223e-168
3.944733452339455676763073e-169
4.529172809306722397536151e-170
5.124563803495023902695494e-171
5.753701673812644195251795e-172
6.491405024886408196214864e-173
7.53903609214321587088073e-174
9.412500645709914111695791e-175
1.341147154735471112177629e-175
2.277342106368805683067396e-176
4.546918554976040144161088e-177
1.008742264011273680647867e-177
2.354541315797638446549367e-178
5.591034206645250074356439e-179
1.328099114550585020752951e-179
3.13169400599484463741521e-180
7.305694284167300569788319e-181
1.683574068007322686931659e-181
3.830132229726044429639492e-182
8.599857745036289346617035e-183
1.905563396763330832024445e-183
4.166801507624148553703837e-184
8.991627074091926053039656e-185
1.914901918154988694067074e-185
4.024836852046844923799177e-186
8.349612723613129953219761e-187
1.709718360215061606887254e-187
3.45579069055143819110303e-188
6.895401046145757875807373e-189
1.358268173876929221190723e-189
2.641495938464220340884601e-190
5.071975267432575375272313e-191
9.615926240648685184235664e-192
1.80017894398661127649536e-192
3.327929963243148507049186e-193
6.075606416057689000953929e-194
1.095430041238587836696437e-194
1.950659257366775805970888e-195
3.43084970834433492569539e-196
5.960282110649908699922995e-197
1.022816360092014322103515e-197
1.733862620912703229080705e-198
2.903607195050771210231292e-199
4.803820281679044229821723e-200