/*--------------------------------*- C++ -*----------------------------------*\
| =========                 |                                                 |
| \\      /  F ield         | OpenFOAM: The Open Source CFD Toolbox           |
|  \\    /   O peration     | Version:  v2012                                 |
|   \\  /    A nd           | Website:  www.openfoam.com                      |
|    \\/     M anipulation  |                                                 |
\*---------------------------------------------------------------------------*/
FoamFile
{
    version     2.0;
    format      ascii;
    class       volScalarField;
    location    "2.2";
    object      alpha.water;
}
// * * * * * * * * * * * * * * * * * * * * * * * * * * * * * * * * * * * * * //

dimensions      [0 0 0 0 0 0 0];


internalField   nonuniform List<scalar> 
96000
(
0
0
0
0
0
0
0
0
0
0
0
0
0
0
0
0
0
0
0
0
0
0
0
0
0
0
0
0
0
0
0
0
0
0
0
0
0
0
0
0
0
0
0
0
0
0
0
0
0
0
0
0
0
0
0
0
0
0
0
0
0
0
0
0
0
0
0
0
0
0
0
0
0
0
0
0
0
0
0
0
0
0
0
0
0
0
0
0
0
0
0
0
0
0
0
0
0
0
0
0
0
0
0
0
0
0
0
0
0
0
0
0
0
0
0
0
0
0
0
0
0
0
0
0
0
0
0
0
0
0
0
0
0
0
0
0
0
0
0
0
0
0
0
0
0
0
0
0
0
0
0
0
0
0
0
0
0
0
0
0
0
0
0
0
0
0
0
0
0
0
0
0
0
0
0
0
0
0
0
0
0
0
0
0
0
0
0
0
0
0
0
0
0
0
0
0
0
0
0
0
0
0
0
0
0
0
0
0
0
0
0
0
0
0
0
0
0
0
0
0
0
0
0
0
0
0
0
0
0
0
0
0
0
0
0
0
0
0
0
0
0
0
0
0
0
0
0
0
0
0
0
0
0
0
0
0
0
0
0
0
0
0
0
0
0
0
0
0
0
0
0
0
0
0
0
0
0
0
0
0
0
0
0
0
0
0
0
0
0
0
0
0
0
0
0
0
0
0
0
0
0
0
0
0
0
0
0
0
0
0
0
0
0
0
0
0
0
0
0
0
0
0
0
0
0
0
0
0
0
0
0
0
0
0
0
0
0
0
0
0
0
0
0
0
0
0
0
0
0
0
0
0
0
0
0
0
0
0
0
0
0
0
0
0
0
0
0
0
0
0
0
0
0
0
0
0
0
0
0
0
0
0
0
0
0
0
0
0
0
0
0
0
0
0
0
0
0
0
0
0
0
0
0
0
0
0
0
0
0
0
0
0
0
0
0
0
0
0
0
0
0
0
0
0
0
0
0
0
0
0
0
0
0
0
0
0
0
0
0
0
0
0
0
0
0
0
0
0
0
0
0
0
0
0
0
0
0
0
0
0
0
0
0
0
0
0
0
0
0
0
0
0
0
0
0
0
0
0
0
0
0
0
0
0
0
0
0
0
0
0
0
0
0
0
0
0
0
0
0
0
0
0
0
0
0
0
0
0
0
0
0
0
0
0
0
0
0
0
0
0
0
0
0
0
0
0
0
0
0
0
0
0
0
0
0
0
0
0
0
0
0
0
0
0
0
0
0
0
0
0
0
0
0
0
0
0
0
0
0
0
0
0
0
0
0
0
0
0
0
0
0
0
0
0
0
0
0
0
0
0
0
0
0
0
0
0
0
0
0
0
0
0
0
0
0
0
0
0
0
0
0
0
0
0
0
0
0
0
0
0
0
0
0
0
0
0
0
0
0
0
0
0
0
0
0
0
0
0
0
0
0
0
0
0
0
0
0
0
0
0
0
0
0
0
0
0
0
0
0
0
0
0
0
0
0
0
0
0
0
0
0
0
0
0
0
0
0
0
0
0
0
0
0
0
0
0
0
0
0
0
0
0
0
0
0
0
0
0
0
0
0
0
0
0
0
0
0
0
0
0
0
0
0
0
0
0
0
0
0
0
0
0
0
0
0
0
0
0
0
0
0
0
0
0
0
0
0
0
0
0
0
0
0
0
0
0
0
0
0
0
0
0
0
0
0
0
0
0
0
0
0
0
0
0
0
0
0
0
0
0
0
0
0
0
0
0
0
0
0
0
0
0
0
0
0
0
0
0
0
0
0
0
0
0
0
0
0
0
0
0
0
0
0
0
0
0
0
0
0
0
0
0
0
0
0
0
0
0
0
0
0
0
0
0
0
0
0
0
0
0
0
0
0
0
0
0
0
0
0
0
0
0
0
0
0
0
0
0
0
0
0
0
0
0
0
0
0
0
0
0
0
0
0
0
0
0
0
0
0
0
0
0
0
0
0
0
0
0
0
0
0
0
0
0
0
0
0
0
0
0
0
0
0
0
0
0
0
0
0
0
0
0
0
0
0
0
0
0
0
0
0
0
0
0
0
0
0
0
0
0
0
0
0
0
0
0
0
0
0
0
0
0
0
0
0
0
0
0
0
0
0
0
0
0
0
0
0
0
0
0
0
0
0
0
0
0
0
0
0
0
0
0
0
0
0
0
0
0
0
0
0
0
0
0
0
0
0
0
0
0
0
0
0
0
0
0
0
0
0
0
0
0
0
0
0
0
0
0
0
0
0
0
0
0
0
0
0
0
0
0
0
0
0
0
0
0
0
0
0
0
0
0
0
0
0
0
0
0
0
0
0
0
0
0
0
0
0
0
0
0
0
0
0
0
0
0
0
0
0
0
0
0
0
0
0
0
0
0
0
0
0
0
0
0
0
0
0
0
0
0
0
0
0
0
0
0
0
0
0
0
0
0
0
0
0
0
0
0
0
0
0
0
0
0
0
0
0
0
0
0
0
0
0
0
0
0
0
0
0
0
0
0
0
0
0
0
0
0
0
0
0
0
0
0
0
0
0
0
0
0
0
0
0
0
0
0
0
0
0
0
0
0
0
0
0
0
0
0
0
0
0
0
0
0
0
0
0
0
0
0
0
0
0
0
0
0
0
0
0
0
0
0
0
0
0
0
0
0
0
0
0
0
0
0
0
0
0
0
0
0
0
0
0
0
0
0
0
0
0
0
0
0
0
0
0
0
0
0
0
0
0
0
0
0
0
0
0
0
0
0
0
0
0
0
0
0
0
0
0
0
0
0
0
0
0
0
0
0
0
0
0
0
0
0
0
0
0
0
0
0
0
0
0
0
0
0
0
0
0
0
0
0
0
0
0
0
0
0
0
0
0
0
0
0
0
0
0
0
0
0
0
0
0
0
0
0
0
0
0
0
0
0
0
0
0
0
0
0
0
0
0
0
0
0
0
0
0
0
0
0
0
0
0
0
0
0
0
0
0
0
0
0
0
0
0
0
0
0
0
0
0
0
0
0
0
0
0
0
0
0
0
0
0
0
0
0
0
0
0
0
0
0
0
0
0
0
0
0
0
0
0
0
0
0
0
0
0
0
0
0
0
0
0
0
0
0
0
0
0
0
0
0
0
0
0
0
0
0
0
0
0
0
0
0
0
0
0
0
0
0
0
0
0
0
0
0
0
0
0
0
0
0
0
0
0
0
0
0
0
0
0
0
0
0
0
0
0
0
0
0
0
0
0
0
0
0
0
0
0
0
0
0
0
0
0
0
0
0
0
0
0
0
0
0
0
0
0
0
0
0
0
0
0
0
0
0
0
0
0
0
0
0
0
0
0
0
0
0
0
0
0
0
0
0
0
0
0
0
0
0
0
0
0
0
0
0
0
0
0
0
0
0
0
0
0
0
0
0
0
0
0
0
0
0
0
0
0
0
0
0
0
0
0
0
0
0
0
0
0
0
0
0
0
0
0
0
0
0
0
0
0
0
0
0
0
0
0
0
0
0
0
0
0
0
0
0
0
0
0
0
0
0
0
0
0
0
0
0
0
0
0
0
0
0
0
0
0
0
0
0
0
0
0
0
0
0
0
0
0
0
0
0
0
0
0
0
0
0
0
0
0
0
0
0
0
0
0
0
0
0
0
0
0
0
0
0
0
0
0
0
0
0
0
0
0
0
0
0
0
0
0
0
0
0
0
0
0
0
0
0
0
0
0
0
0
0
0
0
0
0
0
0
0
0
0
0
0
0
0
0
0
0
0
0
0
0
0
0
0
0
0
0
0
0
0
0
0
0
0
0
0
0
0
0
0
0
0
0
0
0
0
0
0
0
0
0
0
0
0
0
0
0
0
0
0
0
0
0
0
0
0
0
0
0
0
0
0
0
0
0
0
0
0
0
0
0
0
0
0
0
0
0
0
0
0
0
0
0
0
0
0
0
0
0
0
0
0
0
0
0
0
0
0
0
0
0
0
0
0
0
0
0
0
0
0
0
0
0
0
0
0
0
0
0
0
0
0
0
0
0
0
0
0
0
0
0
0
0
0
0
0
0
0
0
0
0
0
0
0
0
0
0
0
0
0
0
0
0
0
0
0
0
0
0
0
0
0
0
0
0
0
0
0
0
0
0
0
0
0
0
0
0
0
0
0
0
0
0
0
0
0
0
0
0
0
0
0
0
0
0
0
0
0
0
0
0
0
0
0
0
0
0
0
0
0
0
0
0
0
0
0
0
0
0
0
0
0
0
0
0
0
0
0
0
0
0
0
0
0
0
0
0
0
0
0
0
0
0
0
0
0
0
0
0
0
0
0
0
0
0
0
0
0
0
0
0
0
0
0
0
0
0
0
0
0
0
0
0
0
0
0
0
0
0
0
0
0
0
0
0
0
0
0
0
0
0
0
0
0
0
0
0
0
0
0
0
0
0
0
0
0
0
0
0
0
0
0
0
0
0
0
0
0
0
0
0
0
0
0
0
0
0
0
0
0
0
0
0
0
0
0
0
0
0
0
0
0
0
0
0
0
0
0
0
0
0
0
0
0
0
0
0
0
0
0
0
0
5.62084848269328918750328e-71
1.268582027275229029403759e-68
1.401405538216496894354451e-66
1.019921127371329111655606e-64
5.524912165405574381308087e-63
2.301769460530939629948571e-61
7.396138416213331968111709e-60
1.909925917379346447637368e-58
4.798322653296708219443996e-57
1.235886103367207759635048e-55
4.125975576107663160660733e-54
8.25624919424306405348645e-53
6.604211981564367343559586e-42
7.716581410349602117137737e-42
8.454472022961160163566007e-42
9.157567426910729340359244e-42
9.889983355404707915222098e-42
1.06687625915342859632532e-41
1.150068048398555198593115e-41
1.239027335180898412445251e-41
1.334173475314385737206151e-41
1.435938106564762623866032e-41
1.544777672383892594292344e-41
1.661177877601388161892198e-41
1.785656301510092166346558e-41
1.918764667298015333636787e-41
2.061091132778831934359577e-41
2.213262697194731174717767e-41
2.375947759198546159239392e-41
2.549858841088381027435188e-41
2.735755463120157951024951e-41
2.934447162272335057168986e-41
3.146796793892154021636511e-41
3.373724289538836750229884e-41
3.616210398888477629679022e-41
3.875299334735114515895655e-41
4.152101658003252572639633e-41
4.447803322097329176714394e-41
4.763680411996993899226554e-41
5.101094463487393787868913e-41
5.461446198200307583899919e-41
5.846165892716632369045647e-41
6.256908247569476032967209e-41
6.695835427117777953701328e-41
7.165237848286559331312072e-41
7.666050955323113870320532e-41
8.197420162473350021320294e-41
8.761363948966971633122671e-41
9.370254023269609444516471e-41
1.004188956846530754392994e-40
1.076747357579249600821244e-40
1.148601247761240573898862e-40
1.215696409121140794116604e-40
1.289117564707598774548893e-40
1.403986315668026645268717e-40
1.61328000647036206349092e-40
1.845162151755423070223399e-40
1.917336038409600827688017e-40
1.919668530822552855468417e-40
1.919006713645359348021082e-40
1.916343412036005152569386e-40
1.909916679975693877984325e-40
1.895517228602385688461385e-40
1.861658901007046519400868e-40
1.791600548812424836586879e-40
1.71499763957016627877777e-40
1.691743742306512971867661e-40
1.690731652767829539258915e-40
1.690746754785274512267682e-40
1.690906244635685854747353e-40
1.691587177614117279885913e-40
1.69327309372508308832369e-40
1.693407249926434552380786e-40
3.842403298939459421936696e-40
1.08227446804622582877668e-39
2.837432910962915073839576e-39
6.91075061567338854310488e-39
2.421331962964915924572109e-38
1.766288980608890392626943e-37
1.704434500570755845824001e-36
1.525651902348423485019267e-35
1.178711027196211211894736e-34
7.832377892717011919998221e-34
4.503007838600713497191216e-33
2.252232127477231294093782e-32
9.833168544721481850357299e-32
3.748133644149527476262081e-31
1.236350772773336672879773e-30
3.379144879046395601464872e-30
6.684573055134611912248057e-30
8.404180803349190155618255e-30
8.427617013086387597981659e-30
7.84572126522921401142635e-30
5.843474330808138070862293e-30
2.613299473848373484896356e-30
4.383169218136008994930897e-31
1.519889346911222775291619e-32
5.907316526070606043577345e-35
1.464051094707998216441794e-38
4.272219435176984577824699e-43
1.157576476176958190943195e-47
3.043235568532268699937668e-52
8.221236684257771274298817e-57
2.33023622247026465897133e-61
6.700808790640930175186879e-66
1.88330060355309891352185e-70
5.162733758571196383548573e-75
1.408712049224580649515849e-79
3.884769995984003510015529e-84
1.081744512490951617749886e-88
3.012013099883213520746788e-93
8.32948122407379484408917e-98
2.289807200719128864105045e-102
6.287895875310373560049987e-107
1.730034445414679353945218e-111
4.765466645955104796497739e-116
1.310994763095966787750227e-120
3.597319007733621407449623e-125
9.850655908512528742552571e-130
2.695024111298134990087559e-134
7.37044808744084127834446e-139
2.014185025064230834220327e-143
5.530683935910100229527821e-148
1.355832003766921142989352e-149
3.527284350735886401808002e-150
1.304994912239599115608558e-150
5.009964556030383725928835e-151
1.915381930279650409931855e-151
7.302919466827505664086961e-152
2.767478386962391140033153e-152
1.038660976812499884230147e-152
3.851855896476214384843945e-153
1.408842547585769918190619e-153
5.073115484101938648532057e-154
1.795436119192999411478733e-154
6.235494613652289095553848e-155
2.122133495998658230297251e-155
7.068875046476231851518121e-156
2.30229729421569654654515e-156
7.32562275637809659776004e-157
2.275693737905683557532938e-157
6.898446226101075267568983e-158
2.039851726936313822477827e-158
5.882316333549781540278371e-159
1.654001976465224509902726e-159
4.534530768167598293923665e-160
1.212096073298421415572708e-160
3.159170433140848076380158e-161
8.029377987376861785010769e-162
1.99030544264793284605849e-162
4.812315466736693607137859e-163
1.135171051356021859621619e-163
2.61290950904314185749378e-164
5.869906963767797893895653e-165
1.287281134235718906721419e-165
2.756417696137408591832026e-166
5.764238173045794681630708e-167
1.177500191407618766155904e-167
2.350172708120626693503151e-168
4.584121477412139773751033e-169
8.740330959070262414919466e-170
1.62934420869205223489249e-170
2.970356894183166486821892e-171
5.296789634859758985878356e-172
9.241074861549517990458212e-173
1.577739557340495347944537e-173
2.636627476588363009203147e-174
4.313808197341101981838523e-175
6.91146499427127178908301e-176
1.084616540940868967844248e-176
1.667554874598731753795206e-177
2.512376036974830754792398e-178
3.710179583391242635632944e-179
5.371792998803302284572938e-180
7.627284011091893093239545e-181
1.062342097207783101440958e-181
1.451868586812505582260263e-182
1.947571277851500118725517e-183
2.56514766749903380350472e-184
3.318626840824944030996236e-185
4.219363941372693979193431e-186
5.275552375715067919244118e-187
6.493069257759648500554528e-188
7.879295303686533247643929e-189
9.453332737477875934253964e-190
1.12699137395930299834122e-190
1.347263269221508183516424e-191
1.640990895481680345903705e-192
2.088447823773991968232846e-193
2.868487198261767498507319e-194
4.370664021455596921008598e-195
7.429383861498759728571187e-196
1.380774323827041591740551e-196
2.71865300019913168386209e-197
5.516363128376320076530927e-198
1.132514467267900822106657e-198
2.327802444639250956473344e-199
4.763503950675240147855385e-200
9.677078682406305439998334e-201
1.948863368056449335573451e-201
3.888083797811471973179806e-202
7.681792469193305086838881e-203
1.502783734403768504732273e-203
2.910789049574921493770879e-204
5.582107830347635471811353e-205
1.05989212419864643698902e-205
1.992547617013465203232828e-206
3.708937230415034674984104e-207
6.835894609182304141333498e-208
1.247550971949086310480017e-208
2.254501492629860714632812e-209
4.034450030097748856987579e-210
7.149439748936011734996042e-211
1.2546590463178954974566e-211
2.180507280464650637776193e-212
3.753007124045534938681883e-213
6.397392978236569374410178e-214
1.080040541781767679885484e-214
1.805934083022826045717319e-215
2.990885427304886459257151e-216
4.90619445912518212287773e-217
7.971640439546409520703644e-218
1.282978215653486217603126e-218
2.04536104875114954135658e-219
3.230056253946455076815715e-220
5.053004566845873942540928e-221
7.83066589753374813888879e-222
1.202172538025022697227009e-222
1.828367636637885411270639e-223
2.75485140685355988372057e-224
4.112253558430887350922054e-225
6.081596115219506871156798e-226
8.91086749061070570769679e-227
1.293587062981686066593858e-227
1.860599779793464568497456e-228
2.651551443069772230248146e-229
3.744078266360388150004732e-230
5.238359992937908873659536e-231
7.262044900402466756429081e-232
9.975693712200218754878274e-233
1.357860353670935745725628e-233
1.831479197914487393207455e-234
2.447882834425563319168267e-235
3.242109749044121436014244e-236
4.255197885318335272482929e-237
5.534432729530339656774065e-238
7.133356489554832922232509e-239
9.111464646502984342506089e-240
1.153351603123764546522666e-240
1.446838830777881169491511e-241
1.79874234953673116730694e-242
2.216222872544965229603176e-243
2.706192604930998233466867e-244
3.274988130162652742114422e-245
3.927998444411135512321849e-246
4.669260020387007142539633e-247
5.501035503605024016515622e-248
6.423397058258057957129459e-249
7.433839047212491104126676e-250
8.526947197794435313164021e-251
9.694152249317986414890951e-252
1.092359495694852438120811e-252
1.220012602481331630009645e-253
1.35054590150535016150325e-254
1.481848668383763062932086e-255
1.611576189667412876763635e-256
1.737213384049561821578528e-257
1.856151941336675013612575e-258
1.965777928014282876777228e-259
2.063565901877176915062922e-260
2.147174888612320482601558e-261
2.214541171160806846577148e-262
2.263962777861735316701867e-263
2.294170850356071642929053e-264
2.304383718889252113955858e-265
2.294340471636206061457979e-266
2.264312008190493227126315e-267
2.215088924934363711400914e-268
2.14794698683535668977204e-269
2.064592286915272350573949e-270
1.967089377712253518266051e-271
1.857776590452504062705359e-272
1.739173372827698435287888e-273
1.613884739470057142770873e-274
1.484507835859543254473259e-275
1.353545192032072226199447e-276
1.2233285389571994530024e-277
1.095956149560861282626381e-278
9.732456319065457344471062e-280
8.567030312789428991336852e-281
7.475080734540648573347324e-282
6.465144741617390675271665e-283
5.5426350364831579750058e-284
4.710084644194603984068189e-285
3.967474281161145348332545e-286
3.312614781861143271477775e-287
2.741557964051733229858475e-288
2.249011791321155971480162e-289
1.828739318543242872801734e-290
1.473925238935038987395164e-291
1.177498465411150389335091e-292
9.324036986577018924197673e-294
7.318190586975107018491012e-295
5.693203709587414332878729e-296
4.389954757515840350535472e-297
3.355139273495031765755015e-298
2.54158690486508281216871e-299
1.908270055941871747882216e-300
1.420075918622073048801304e-301
1.047409192304321528824441e-302
7.656853949122101236000279e-304
5.547654669145138025804978e-305
3.983724487069394808232332e-306
2.835212218960644770246969e-307
1.999832695514837365668048e-308
1.398005308498483582518521e-309
9.685590859290558805796206e-311
6.650288274929903067872184e-312
4.525292077353159173988802e-313
3.051680897357333549140977e-314
2.039446820650046501453734e-315
1.350704774936048169398267e-316
8.86501000201656991722929e-318
5.765746086967347170540558e-319
3.713891459788650272575268e-320
2.391277725871633273814593e-321
1.679823195860238250200334e-322
0
0
0
0
0
0
0
0
0
0
0
0
0
0
0
0
0
0
0
0
0
0
0
0
0
0
0
0
0
0
0
0
0
0
0
0
0
0
0
0
0
0
0
0
0
0
0
0
0
0
0
0
0
0
0
0
0
0
0
0
0
0
0
0
0
0
0
0
0
0
0
0
1.303753253842704690976161e-71
1.08676333386646349939956e-68
2.091941803104451057616281e-66
2.155099445666545725070808e-64
1.4968421082696608117645e-62
7.858726617506717736643967e-61
3.260563488825486358527744e-59
1.090000887212358998017957e-57
2.963972967019613582787956e-56
7.166143919796031304547671e-55
1.581114375515098223362793e-53
4.330959667065153883935248e-52
7.934434269158794788460588e-51
2.216913095129989922175058e-40
2.802700556488411747561722e-40
3.257316665978201340008153e-40
3.72305728231704506638353e-40
4.231510787613300789757919e-40
4.793740311094144309718712e-40
5.416436045104891219802914e-40
6.10559102374542995984582e-40
6.867406531947805341194702e-40
7.708541523575786250277146e-40
8.636206289665660426844848e-40
9.65822102448631206021974e-40
1.078306864182709530373488e-39
1.201994914978053212028999e-39
1.337883757678977232421293e-39
1.487054618644064682854336e-39
1.650679145193989484270893e-39
1.830026615216909109819948e-39
2.026471681495154791259386e-39
2.241502697500650663070776e-39
2.476730757214022581869925e-39
2.733899529462006693714568e-39
3.014895544493726578094094e-39
3.321758542972935038677554e-39
3.65669336179736089775944e-39
4.022086561325507060983295e-39
4.420524609367437371236886e-39
4.854797608285248804966214e-39
5.32788616614650358469048e-39
5.842992380442900341688287e-39
6.403688534307214653131251e-39
7.014037410121587143064104e-39
7.678255833643676262850957e-39
8.399939069038726435204099e-39
9.182320200412118161586534e-39
1.003125822867685557145127e-38
1.095842473434748144022004e-38
1.197657059783620183194234e-38
1.308356183373313150427046e-38
1.425461960545058141148253e-38
1.547497929263288808473991e-38
1.679767374814158966827773e-38
1.835958082116418004245829e-38
2.030675636486159164565588e-38
2.264229577811111173483699e-38
2.514558664547477944816658e-38
2.738720851167619664863931e-38
2.893205905695947696736076e-38
2.979608337061977184394541e-38
3.036583734519173071660403e-38
3.10381136677175968751357e-38
3.237381226038828449780998e-38
3.508688721966284044260127e-38
3.785913301175821923632604e-38
3.85605614385022428700565e-38
3.857988500439949040109064e-38
3.857572003616260691860542e-38
3.854613339228309177514959e-38
3.842610293109459463864682e-38
3.809923677821549507529832e-38
3.691083856391670029580701e-38
8.095687789014021236724146e-38
2.265173254887440622725501e-37
5.76170218338980115676148e-37
1.35262454567563496358198e-36
4.851114040379185381387745e-36
3.68069650654671887135326e-35
3.507741640820511567957902e-34
3.035963523404975707560807e-33
2.255819531669005399841271e-32
1.438633949989287509584672e-31
7.924877571442150471708888e-31
3.790389107071413191542399e-30
1.578357930512715674517861e-29
5.711745408952408304515056e-29
1.765500125266081244122809e-28
4.332251972442561730777649e-28
7.137612633794879770599795e-28
7.833884338388624267081174e-28
7.678394706291444264901932e-28
6.690356995824166259005939e-28
4.240838439429084632713658e-28
1.3682115947091561072474e-28
1.32697239852538442456237e-29
2.110609682778077310343636e-31
3.069598386450110634539328e-34
2.383518851763079703691189e-38
6.261510873803418480448062e-43
1.768690753214256971130319e-47
5.323075678831322406664013e-52
1.572228743345626989512502e-56
4.454414376327787707239919e-61
1.241052057974988030842787e-65
3.475613108837391411766444e-70
9.862016142726750162071313e-75
2.814902225346669709407702e-79
7.998326857190332193389243e-84
2.254665200742749040868425e-88
6.327117341761848610241174e-93
1.77545426646038661009527e-97
4.988374048328401615199376e-102
1.401113735931476702450505e-106
3.926738095914011045680993e-111
1.097513978562195759981016e-115
3.061328353234298430899132e-120
8.528807123906531263286248e-125
2.373762439632086802740994e-129
6.598093916594798544022365e-134
1.830942262621501723465319e-138
5.071856527276748243522634e-143
1.419101853942678926134277e-147
2.258873356919740207305715e-149
7.53191094600805684769414e-150
3.150293079603753272405428e-150
1.353435618516410267203059e-150
5.754674175343329511719295e-151
2.411439640340426552436135e-151
9.927670078304479191407476e-152
4.006643001017076234406957e-152
1.583081623244748708852209e-152
6.117610052251940059376281e-153
2.31007929183658277324686e-153
8.516867897519684162761286e-154
3.063500019525986820309314e-154
1.074387425699687670355924e-154
3.671787037436709663864219e-155
1.222323869688120896873374e-155
3.962368362465612959967787e-156
1.250534675464455528206122e-156
3.842037682006711955362582e-157
1.149051960554435310160626e-157
3.345384718874946235677446e-158
9.482456673769965519148444e-159
2.617118301420306254326302e-159
7.034416248122942905203824e-160
1.841710505037221079991831e-160
4.697844483935951532708184e-161
1.167782396445915619916142e-161
2.82955450388599956358794e-162
6.684626706112921541310512e-163
1.540108760758855306077545e-163
3.461418259581074955697768e-164
7.590999724138197207256415e-165
1.624799282242186125315103e-165
3.395231999540562879480866e-166
6.92820248058981885218756e-167
1.380907302334661740997907e-167
2.689129817612249607008307e-168
5.117663483834869002815644e-169
9.520348552353263211645391e-170
1.731660361414630285836545e-170
3.080407517176094392979299e-171
5.360379486568537668880488e-172
9.127058052800455807814661e-173
1.520967713838574935328752e-173
2.481243500784096670584163e-174
3.963565036714019203065327e-175
6.201231725029819685870226e-176
9.50506661740978468888241e-177
1.427676642005053064250934e-177
2.101926607035042603200667e-178
3.03415840895353028116995e-179
4.29554480753488307468592e-180
5.966133901451171182565461e-181
8.13227299758587956312062e-182
1.088296845963384575157756e-182
1.43057501920911035593464e-183
1.848346884354995219249899e-184
2.349516852940115380343342e-185
2.942777597931646467892715e-186
3.641314283278793202228061e-187
4.472207674127499269614599e-188
5.498446319839092783308209e-189
6.868602625566736530181009e-190
8.926740702664401817828437e-191
1.245233408433033059402684e-191
1.917807453454419944374796e-192
3.289540904095031630858374e-193
6.17894464656435804378195e-194
1.233165384494513799273142e-194
2.542812779210589608302038e-195
5.31424775168274446490621e-196
1.11302101623940771101607e-196
2.321982500164058392002529e-197
4.810049027984035756621658e-198
9.878558220863880339898002e-199
2.009814912920466466703093e-199
4.049265612921447063731076e-200
8.077566960589529602364827e-201
1.595287137164454519598476e-201
3.1191968927109122823085e-202
6.03802454598262908781519e-203
1.157185858032596143463979e-203
2.195726590365654633986988e-204
4.12508026564601384294929e-205
7.67323123975194034889794e-206
1.413282312683044173370607e-206
2.577492459840195429816383e-207
4.65475446492290186075175e-208
8.324151946853071640836961e-209
1.474143932486460882202503e-209
2.585289074119814591695682e-210
4.490142824933119832350096e-211
7.723343200458704870538766e-212
1.315699678257027995507233e-212
2.219864105198867660442186e-213
3.709590135521843503584799e-214
6.139979491903155551216101e-215
1.006608747788985221913103e-215
1.634625988184580756387196e-216
2.629365423329630801128855e-217
4.18956634744519401302652e-218
6.612768188855577291103281e-219
1.033960502825293663413507e-219
1.601552369800646376505651e-220
2.457563819639527549460792e-221
3.735980922033099657494621e-222
5.626653878054783342830282e-223
8.395581450520229194575063e-224
1.241124966913013977890918e-224
1.817830261837124691239857e-225
2.637988910244969485144887e-226
3.79300106312941567475842e-227
5.403705557264487674862878e-228
7.627939906452504853154388e-229
1.066934343915732177334302e-229
1.478736378289019207063565e-230
2.030832230529071762704303e-231
2.763725968522472784717944e-232
3.727011932759435501086463e-233
4.980563798786504431871315e-234
6.595610796764854761439513e-235
8.655596648277065789587846e-236
1.125669730726210087106187e-236
1.45078577570314239629338e-237
1.853019851547726664558656e-238
2.345564192314298353649001e-239
2.94246194654000770159018e-240
3.658274667269410552688627e-241
4.507639318435035927944549e-242
5.504713287974632322894279e-243
6.662513165496842499440326e-244
7.99216158179423589158917e-245
9.502065771114094062987525e-246
1.119706107740154372776235e-246
1.307756160282123046131128e-247
1.513876770785934241640373e-248
1.73699852032524717915436e-249
1.975411296809721066620533e-250
2.226735368490643296991179e-251
2.487919595325570991374399e-252
2.75527051199442582763163e-253
3.024514503474929773198521e-254
3.290893432069992660626137e-255
3.549291975580354090882134e-256
3.794392746008382854346152e-257
4.020853146108834815613375e-258
4.223496065341334793111101e-259
4.397505087385594207490898e-260
4.538614023051697356692896e-261
4.643280398649920632270062e-262
4.708833070331455217425297e-263
4.733585387928858041027194e-264
4.716907222925843449317516e-265
4.659251572079438559783476e-266
4.562134172022776302147638e-267
4.428067401743202501984513e-268
4.260452489112707493737591e-269
4.063436464683971253417625e-270
3.841742240222837592970828e-271
3.600481496317539676315271e-272
3.344960665298291619108552e-273
3.080490177453938868464112e-274
2.812206345818735958010431e-275
2.54491389715952516130346e-276
2.282955354985414087336329e-277
2.030111411175309032990818e-278
1.789534261573635897263923e-279
1.563713795399535476560885e-280
1.354474664132784932878722e-281
1.163000725395370997537427e-282
9.898822344918072917791974e-284
8.35180472523695230452378e-285
6.985042479636776124008413e-286
5.790928473884264624825012e-287
4.75900474491648769442275e-288
3.876779223572005845998517e-289
3.130480837112351131289501e-290
2.505728311889310056301383e-291
1.988097175685159722757768e-292
1.563577917685672091244346e-293
1.218925545903383960930167e-294
9.419066089462078038872452e-296
7.214540100508065215591692e-297
5.477426677285690390291044e-298
4.12200411223382119310088e-299
3.074686572439330726413143e-300
2.273266544601299390429089e-301
1.665916711790973933135814e-302
1.210056920226790670533637e-303
8.711720201598464410042167e-305
6.216464988426817306425522e-306
4.396632914849532728613728e-307
3.081978358510376981313382e-308
2.141248054206332062992276e-309
1.474441630583274341223822e-310
1.006251206811261727491178e-311
6.806099906696262067321508e-313
4.562448540026434972356936e-314
3.031097435800339498777885e-315
1.995714787753353983269632e-316
1.30223451415735726130648e-317
8.421398339928631470144033e-319
5.393714655648888522775602e-320
3.374468361095713896725965e-321
1.679823195860238250200334e-322
0
0
0
0
0
0
0
0
0
0
0
0
0
0
0
0
0
0
0
0
0
0
0
0
0
0
0
0
0
0
0
0
0
0
0
0
0
0
0
0
0
0
0
0
0
0
0
0
0
0
0
0
0
0
0
0
0
0
0
0
0
0
0
0
0
0
0
0
0
0
2.10384546970222849060065e-72
1.856160167280235725297299e-69
8.622008239638183453552994e-67
1.491566777262282899351769e-64
1.474480266203309476500562e-62
1.003056913931482809611218e-60
5.203613703924218019166648e-59
2.150499143812574581539443e-57
7.277990964893627647943375e-56
2.035338492818944159499731e-54
4.982965523083757779036479e-53
1.042386191871856908747671e-51
2.465996700471646595612734e-50
4.041219881256691352003083e-49
4.015974173892358412587445e-39
5.324604847948595000152804e-39
6.444650462851228244490132e-39
7.663361948148480922516038e-39
9.05943323070807742937282e-39
1.06725841043422262319652e-38
1.253583009997307554067016e-38
1.468320044704468655606117e-38
1.715187075317830302776641e-38
1.998297190832685572950636e-38
2.322210356416269065040663e-38
2.691980584164787850054504e-38
3.113205407759765045475998e-38
3.592079542008639807354849e-38
4.1354535066195265301452e-38
4.75089775454209502439551e-38
5.446772817418335131590895e-38
6.232305982776873652521975e-38
7.117675031538109202442282e-38
8.114099710994016638144081e-38
9.233941859266501633885588e-38
1.049081478182661592954149e-37
1.18997013878414406024808e-37
1.347708154890243689950218e-37
1.5241075117301599498636e-37
1.721160809502022114602151e-37
1.941058525034206004770098e-37
2.18620263700479575588449e-37
2.45921958119605748698339e-37
2.762992902670363784454827e-37
3.100726688321287896060188e-37
3.475977737355472581226722e-37
3.892546784220848296174849e-37
4.35431319628283269100801e-37
4.865476468689650330177742e-37
5.431502992741113487642158e-37
6.059765796603501757962724e-37
6.757759582785618958343971e-37
7.52888730741132626374688e-37
8.371311247095946824934773e-37
9.286626726785403281202159e-37
1.029456519276972531870275e-36
1.143900327006854618168934e-36
1.277479403439616521023851e-36
1.433507069324873853984374e-36
1.608475771329604656902523e-36
1.78870295205982361221013e-36
1.954669753187496993919399e-36
2.093771843629899201309555e-36
2.209029202872534027371102e-36
2.318267011750083975987234e-36
2.456619500134744333159673e-36
2.696445304257104496285249e-36
3.128229605329452476160875e-36
3.551431730661264547106029e-36
3.652524133277749770227598e-36
3.653402975504563864777946e-36
3.649473823785413784051715e-36
3.635962691090611633609066e-36
3.607182202161972084486081e-36
3.529881532221867690345248e-36
7.754929758889642991343306e-36
2.139924949919509039838154e-35
5.264279064007896879612749e-35
1.21428201549521205739873e-34
4.523809078118282582980329e-34
3.530937868454187270494731e-33
3.30383238854986367789679e-32
2.766384013070027000731377e-31
1.981112863956777936900691e-30
1.215498081435549393765063e-29
6.430311349210926847827972e-29
2.94746759793931283872457e-28
1.172804477367176400838239e-27
4.029722943753024254973025e-27
1.158399956632906979678976e-26
2.492016840258660983041022e-26
3.424919139024912482520746e-26
3.498331236919473801385444e-26
3.334151925762205402997883e-26
2.645356408695711060333879e-26
1.359954090469481040889598e-26
2.96345692207070833769028e-27
1.553598171938752800117156e-28
1.074774861854435085932377e-30
5.530673989280408576999697e-34
1.875761925688359685284077e-38
5.781231707010470957042965e-43
1.677510275036857259752406e-47
4.689022949923747582673012e-52
1.297391162450143930402428e-56
3.649495389475052297863952e-61
1.046810132097048153408457e-65
3.016741867190309603781563e-70
8.625714307257508435921555e-75
2.443678402564221969141141e-79
6.897197900350181253051821e-84
1.949259940370678856640506e-88
5.521646279353024154102524e-93
1.564437305503966441842769e-97
4.423129941766794464689749e-102
1.247022505131777484320519e-106
3.508395125681823738917081e-111
9.859474653389871411503865e-116
2.768550906073752373887037e-120
7.765320439140575288116285e-125
2.174510864381859474172079e-129
6.07804463285996302630841e-134
1.695931580677582348963057e-138
4.724749717433560967628751e-143
1.33588772694593903545287e-147
2.47289420764949732374371e-149
9.628084353204704616044808e-150
4.553181776612773632173275e-150
2.16391571199727505496462e-150
1.005225623198956971440495e-150
4.551459687375082517186438e-151
2.004700846250832601276398e-151
8.580484448614055518004272e-152
3.567573514161334116917202e-152