/*--------------------------------*- C++ -*----------------------------------*\
| =========                 |                                                 |
| \\      /  F ield         | OpenFOAM: The Open Source CFD Toolbox           |
|  \\    /   O peration     | Version:  v2012                                 |
|   \\  /    A nd           | Website:  www.openfoam.com                      |
|    \\/     M anipulation  |                                                 |
\*---------------------------------------------------------------------------*/
FoamFile
{
    version     2.0;
    format      ascii;
    class       volScalarField;
    location    "2.5";
    object      alpha.water;
}
// * * * * * * * * * * * * * * * * * * * * * * * * * * * * * * * * * * * * * //

dimensions      [0 0 0 0 0 0 0];


internalField   nonuniform List<scalar> 
96000
(
0
0
0
0
0
0
0
0
0
0
0
0
0
0
0
0
0
0
0
0
0
0
0
0
0
0
0
0
0
0
0
0
0
0
0
0
0
0
0
0
0
0
0
0
0
0
0
0
0
0
0
0
0
0
0
0
0
0
0
0
0
0
0
0
0
0
0
0
0
0
0
0
0
0
0
0
0
0
0
0
0
0
0
0
0
0
0
0
0
0
0
0
0
0
0
0
0
0
0
0
0
0
0
0
0
0
0
0
0
0
0
0
0
0
0
0
0
0
0
0
0
0
0
0
0
0
0
0
0
0
0
0
0
0
0
0
0
0
0
0
0
0
0
0
0
0
0
0
0
0
0
0
0
0
0
0
0
0
0
0
0
0
0
0
0
0
0
0
0
0
0
0
0
0
0
0
0
0
0
0
0
0
0
0
0
0
0
0
0
0
0
0
0
0
0
0
0
0
0
0
0
0
0
0
0
0
0
0
0
0
0
0
0
0
0
0
0
0
0
0
0
0
0
0
0
0
0
0
0
0
0
0
0
0
0
0
0
0
0
0
0
0
0
0
0
0
0
0
0
0
0
0
0
0
0
0
0
0
0
0
0
0
0
0
0
0
0
0
0
0
0
0
0
0
0
0
0
0
0
0
0
0
0
0
0
0
0
0
0
0
0
0
0
0
0
0
0
0
0
0
0
0
0
0
0
0
0
0
0
0
0
0
0
0
0
0
0
0
0
0
0
0
0
0
0
0
0
0
0
0
0
0
0
0
0
0
0
0
0
0
0
0
0
0
0
0
0
0
0
0
0
0
0
0
0
0
0
0
0
0
0
0
0
0
0
0
0
0
0
0
0
0
0
0
0
0
0
0
0
0
0
0
0
0
0
0
0
0
0
0
0
0
0
0
0
0
0
0
0
0
0
0
0
0
0
0
0
0
0
0
0
0
0
0
0
0
0
0
0
0
0
0
0
0
0
0
0
0
0
0
0
0
0
0
0
0
0
0
0
0
0
0
0
0
0
0
0
0
0
0
0
0
0
0
0
0
0
0
0
0
0
0
0
0
0
0
0
0
0
0
0
0
0
0
0
0
0
0
0
0
0
0
0
0
0
0
0
0
0
0
0
0
0
0
0
0
0
0
0
0
0
0
0
0
0
0
0
0
0
0
0
0
0
0
0
0
0
0
0
0
0
0
0
0
0
0
0
0
0
0
0
0
0
0
0
0
0
0
0
0
0
0
0
0
0
0
0
0
0
0
0
0
0
0
0
0
0
0
0
0
0
0
0
0
0
0
0
0
0
0
0
0
0
0
0
0
0
0
0
0
0
0
0
0
0
0
0
0
0
0
0
0
0
0
0
0
0
0
0
0
0
0
0
0
0
0
0
0
0
0
0
0
0
0
0
0
0
0
0
0
0
0
0
0
0
0
0
0
0
0
0
0
0
0
0
0
0
0
0
0
0
0
0
0
0
0
0
0
0
0
0
0
0
0
0
0
0
0
0
0
0
0
0
0
0
0
0
0
0
0
0
0
0
0
0
0
0
0
0
0
0
0
0
0
0
0
0
0
0
0
0
0
0
0
0
0
0
0
0
0
0
0
0
0
0
0
0
0
0
0
0
0
0
0
0
0
0
0
0
0
0
0
0
0
0
0
0
0
0
0
0
0
0
0
0
0
0
0
0
0
0
0
0
0
0
0
0
0
0
0
0
0
0
0
0
0
0
0
0
0
0
0
0
0
0
0
0
0
0
0
0
0
0
0
0
0
0
0
0
0
0
0
0
0
0
0
0
0
0
0
0
0
0
0
0
0
0
0
0
0
0
0
0
0
0
0
0
0
0
0
0
0
0
0
0
0
0
0
0
0
0
0
0
0
0
0
0
0
0
0
0
0
0
0
0
0
0
0
0
0
0
0
0
0
0
0
0
0
0
0
0
0
0
0
0
0
0
0
0
0
0
0
0
0
0
0
0
0
0
0
0
0
0
0
0
0
0
0
0
0
0
0
0
0
0
0
0
0
0
0
0
0
0
0
0
0
0
0
0
0
0
0
0
0
0
0
0
0
0
0
0
0
0
0
0
0
0
0
0
0
0
0
0
0
0
0
0
0
0
0
0
0
0
0
0
0
0
0
0
0
0
0
0
0
0
0
0
0
0
0
0
0
0
0
0
0
0
0
0
0
0
0
0
0
0
0
0
0
0
0
0
0
0
0
0
0
0
0
0
0
0
0
0
0
0
0
0
0
0
0
0
0
0
0
0
0
0
0
0
0
0
0
0
0
0
0
0
0
0
0
0
0
0
0
0
0
0
0
0
0
0
0
0
0
0
0
0
0
0
0
0
0
0
0
0
0
0
0
0
0
0
0
0
0
0
0
0
0
0
0
0
0
0
0
0
0
0
0
0
0
0
0
0
0
0
0
0
0
0
0
0
0
0
0
0
0
0
0
0
0
0
0
0
0
0
0
0
0
0
0
0
0
0
0
0
0
0
0
0
0
0
0
0
0
0
0
0
0
0
0
0
0
0
0
0
0
0
0
0
0
0
0
0
0
0
0
0
0
0
0
0
0
0
0
0
0
0
0
0
0
0
0
0
0
0
0
0
0
0
0
0
0
0
0
0
0
0
0
0
0
0
0
0
0
0
0
0
0
0
0
0
0
0
0
0
0
0
0
0
0
0
0
0
0
0
0
0
0
0
0
0
0
0
0
0
0
0
0
0
0
0
0
0
0
0
0
0
0
0
0
0
0
0
0
0
0
0
0
0
0
0
0
0
0
0
0
0
0
0
0
0
0
0
0
0
0
0
0
0
0
0
0
0
0
0
0
0
0
0
0
0
0
0
0
0
0
0
0
0
0
0
0
0
0
0
0
0
0
0
0
0
0
0
0
0
0
0
0
0
0
0
0
0
0
0
0
0
0
0
0
0
0
0
0
0
0
0
0
0
0
0
0
0
0
0
0
0
0
0
0
0
0
0
0
0
0
0
0
0
0
0
0
0
0
0
0
0
0
0
0
0
0
0
0
0
0
0
0
0
0
0
0
0
0
0
0
0
0
0
0
0
0
0
0
0
0
0
0
0
0
0
0
0
0
0
0
0
0
0
0
0
0
0
0
0
0
0
0
0
0
0
0
0
0
0
0
0
0
0
0
0
0
0
0
0
0
0
0
0
0
0
0
0
0
0
0
0
0
0
0
0
0
0
0
0
0
0
0
0
0
0
0
0
0
0
0
0
0
0
0
0
0
0
0
0
0
0
0
0
0
0
0
0
0
0
0
0
0
0
0
0
0
0
0
0
0
0
0
0
0
0
0
0
0
0
0
0
0
0
0
0
0
0
0
0
0
0
0
0
0
0
0
0
0
0
0
0
0
0
0
0
0
0
0
0
0
0
0
0
0
0
0
0
0
0
0
0
0
0
0
0
0
0
0
0
0
0
0
0
0
0
0
0
0
0
0
0
0
0
0
0
0
0
0
0
0
0
0
0
0
0
0
0
0
0
0
0
0
0
0
0
0
0
0
0
0
0
0
0
0
0
0
0
0
0
0
0
0
0
0
0
0
0
0
0
0
0
0
0
0
0
0
0
0
0
0
0
0
0
0
0
0
0
0
0
0
0
0
0
0
0
0
0
0
0
0
0
0
0
0
0
0
0
0
0
0
0
0
0
0
0
0
0
0
0
0
0
0
0
0
0
0
0
0
0
0
0
0
0
0
0
0
0
0
0
0
0
0
0
0
0
0
0
0
0
0
0
0
0
0
0
0
0
0
0
0
0
0
0
0
0
0
0
0
0
0
0
0
0
0
0
0
0
0
0
0
0
0
0
0
0
0
0
0
0
0
0
0
0
0
0
0
0
0
0
0
0
0
0
0
0
0
0
0
0
0
0
0
0
0
0
0
0
0
0
0
0
0
0
0
0
0
0
0
0
0
0
0
0
0
0
0
0
0
0
0
0
0
0
0
0
0
0
0
0
0
0
0
0
0
0
0
0
0
0
0
0
0
0
0
0
0
0
0
0
0
0
0
0
0
0
0
0
0
0
0
0
0
0
0
0
0
0
0
0
0
0
0
0
0
0
0
0
0
0
0
0
0
0
0
0
0
0
0
0
0
0
0
0
0
0
0
0
0
0
0
0
0
0
0
0
0
0
0
0
0
0
0
0
0
0
0
0
0
0
0
0
0
0
0
0
0
0
0
0
0
0
0
0
0
0
0
0
0
0
0
0
0
0
0
0
0
0
0
0
0
0
0
0
0
0
0
0
0
0
0
0
0
0
0
0
0
0
0
0
0
0
0
0
0
0
0
0
0
0
0
0
0
0
0
0
0
0
0
0
0
0
0
0
0
0
0
0
0
0
0
0
0
0
0
0
0
0
0
0
0
0
0
0
0
0
0
0
0
0
0
0
0
0
0
0
0
0
0
0
0
0
0
0
0
0
0
0
0
0
0
0
0
0
0
0
0
0
0
0
0
0
0
0
0
0
0
0
0
0
0
0
0
0
0
0
0
0
0
0
0
0
0
0
0
0
0
0
0
0
0
0
2.027033651255230944416787e-81
5.508150518908103321792006e-79
7.337329754142895001023647e-77
6.433382627436890699018869e-75
4.207898200512797678490504e-73
2.166429008370130791942305e-71
8.95771994356902854013551e-70
2.963721939336770210746693e-68
8.448917646893659812251551e-67
2.115475529427048621206611e-65
7.126268894409297768722766e-64
2.187103652107179530934335e-63
1.287430630618809798039262e-48
1.507601626634092480585254e-48
1.654309307050158387973573e-48
1.794337920152953012076703e-48
1.940339892595600452453788e-48
2.095695979539968717845298e-48
2.26176456859961771265625e-48
2.439464504046894755380226e-48
2.629649150433557750477296e-48
2.833198373920552784997899e-48
3.051043431170256197006013e-48
3.284175959997433685714629e-48
3.533653337647216371134389e-48
3.800603392221536233997662e-48
4.086229233177890543315581e-48
4.39181434032776045229991e-48
4.71872784487605834381224e-48
5.068430030214384055367552e-48
5.442478265743533335438875e-48
5.842533523415143559998111e-48
6.270367372972055593808966e-48
6.727869294118986588683202e-48
7.217054343058221344353857e-48
7.740071342055686764179038e-48
8.299211683709938861062208e-48
8.896918722214697549368726e-48
9.535797683133887648911591e-48
1.021862612485776880542122e-47
1.094836529048629484711665e-47
1.172817265898240358291402e-47
1.256141471630267973491199e-47
1.345167815322270645043304e-47
1.440278240444843159911583e-47
1.541880326288637997929418e-47
1.65041039031588182383575e-47
1.76633322693862165648699e-47
1.890136422671283286236931e-47
2.022333020435976352380564e-47
2.163492655270904781194773e-47
2.314269848052116054777111e-47
2.475327329536899669273552e-47
2.647162003915128853562576e-47
2.830198658124253794158045e-47
3.025508653378622238566455e-47
3.235287454226822005448981e-47
3.460968545107949641249783e-47
3.69959427270442494805283e-47
3.94588610801849996970206e-47
4.204957812995841945552868e-47
4.503706190978134106356706e-47
4.866902965637725037825723e-47
5.225247880653938297769483e-47
5.469376019613365176285374e-47
5.669996641676086965522306e-47
6.192719815569726299983864e-47
7.351226920474048797114008e-47
7.686270316926651168530778e-47
7.70136400755024207929924e-47
7.711428622962494860266542e-47
8.245914774441164887855469e-47
1.031024919555031634121803e-46
2.861141815258162400504882e-46
8.08319851934690874006961e-46
2.308371120777899031044799e-45
6.566196508653729376115948e-45
1.916291201000449531851557e-44
5.792491488885598524804761e-44
1.707371707655211510433209e-43
4.5737533894263038490932e-43
1.245283716582121914785208e-42
4.761308505999897353908685e-42
2.92609076887278217523416e-41
2.213697455700483416958415e-40
1.656030838102478815820389e-39
1.141152834480918929747049e-38
7.128051596235126100932453e-38
4.026521197907678450266835e-37
2.05958326911231126350579e-36
9.54669488582167516926046e-36
3.99556108311576295226272e-35
1.510305107569693707450331e-34
5.27307215618275170335682e-34
1.750371446998060721465983e-33
5.168505141899631389735256e-33
1.034668629469257126213411e-32
1.236918077866464543997698e-32
1.240008185068256117844129e-32
1.19662042557092326349303e-32
9.882219294834834863076101e-33
4.972664739264555970202306e-33
7.775214154299670446885475e-34
1.550786126782523320832841e-35
1.491283289120746162363615e-38
2.848278272148759125075521e-43
4.356196869791117962006671e-48
5.432223921608212241641216e-53
6.11061067380665645282158e-58
7.669199562309694904360413e-63
1.102633516108214966384623e-67
1.427371957994009831921228e-72
1.865250719440650983105118e-77
2.670039095199429816221691e-82
3.988263717278597776145327e-87
5.96710808800855163165652e-92
9.490580395653280605393766e-97
1.645727750730834439495857e-101
3.055182579725902068899116e-106
6.086432289892230249032738e-111
1.322145570411054719584844e-115
3.109713402844902345194065e-120
7.770768927091341731536202e-125
2.033925852330809357293454e-129
5.49626719695276306388894e-134
1.509256364677442369419357e-138
4.165319079476241454467128e-143
1.154494026311942852473109e-147
2.679766548708593550395736e-149
8.147583226671836222410521e-150
3.554185865429858567663612e-150
1.57473444483038773328621e-150
6.803164484556194343771767e-151
2.861208290888064748696362e-151
1.162276061159541527283898e-151
4.559354496062943774014597e-152
1.740729621539432114079143e-152
6.540335017800311921008024e-153
2.443837252421433393420403e-153
9.145929577286376990056147e-154
3.436200313660446595835672e-154
1.293921097149577352854391e-154
4.865730401428999334246466e-155
1.820357388770274244459929e-155
6.754516740601924858536344e-156
2.480137579475939514835837e-156
8.996628731599109143972454e-157
3.219927749361609543623362e-157
1.135815288981706041577618e-157
3.945092490378301111127808e-158
1.348136433793033556923556e-158
4.529177805769798774248177e-159
1.49498287966691520379153e-159
4.845583494918516950268939e-160
1.541515119256376899081613e-160
4.811435401853183246240089e-161
1.472961727184120580456276e-161
4.42171966499280067061204e-162
1.301343389678993114958748e-162
3.754339223691416265114473e-163
1.061634287901860371534128e-163
2.942330468108702267671482e-164
7.992308477655716680257625e-165
2.127738686792746164576181e-165
5.551885690840099482162993e-166
1.41990118139718220654851e-166
3.559567224134554859244692e-167
8.747612380353151268527283e-168
2.10751924982265200469767e-168
4.978327682342693920993127e-169
1.153104297549726973124931e-169
2.619223703285905125688453e-170
5.835030258088059899585768e-171
1.275056041689499555580792e-171
2.733262482716543708790691e-172
5.748445700270231039869217e-173
1.186282976415178072249539e-173
2.402409964688345334962418e-174
4.775066068403052620716208e-175
9.316177771184254809723037e-176
1.784329513821240011992489e-176
3.355398607472516508546451e-177
6.19580660503466751307024e-178
1.123541723349272818993103e-178
2.001111011992311574971275e-179
3.501038543068094806635283e-180
6.017548517380411196480048e-181
1.016231863741481508483638e-181
1.686437874972634945882051e-182
2.750467412317653453240034e-183
4.409163079066655146906497e-184
6.948242796677518156178873e-185
1.076513899577769393703586e-185
1.640016006815131483800674e-186
2.457083715640425124266951e-187
3.620737900866717051828456e-188
5.248610536605477365774934e-189
7.485672903078897766858245e-190
1.050586898251775314932921e-190
1.451218722574517625362779e-191
1.973487414198256488959134e-192
2.642796115187513697165932e-193
3.486531397542804616869465e-194
4.533957758338439112198416e-195
5.81718443959016167757264e-196
7.374907182747929639968393e-197
9.262535227173292928963769e-198
1.157627317930573657143128e-198
1.450691587084401554076864e-199
1.845593575083837531750885e-200
2.428069730599274315972444e-201
3.380470576857578800093103e-202
5.086663861837583612944699e-203
8.34540772355588910690628e-204
1.479995303718913995007866e-204
2.779438553752013885951869e-205
5.406367171898003566429456e-206
1.070359552471530748242514e-206
2.132209438610857115553164e-207
4.244452500501660236245751e-208
8.41052211335899604552993e-209
1.655452313772000416188714e-209
3.233058061385188414269401e-210
6.261189567753127607555802e-211
1.202029016439004587682738e-211
2.287296422777280561788502e-212
4.313692717484997465887939e-213
8.06275922153159800995776e-214
1.493565325812918720756111e-214
2.742043303378975810420712e-215
4.989306536393064425757042e-216
8.997658678802698384182995e-217
1.608239291123737682537378e-217
2.849130683747851520843919e-218
5.002919089944386516254731e-219
8.707487939944756189277072e-220
1.502205762914029834672185e-220
2.568868522741449698337537e-221
4.354506232821312663821303e-222
7.316933457277875841354537e-223
1.218767566415414079232679e-223
2.012438348407469121361297e-224
3.294142513150938937616265e-225
5.345500132072900087823512e-226
8.599404747648764083874536e-227
1.371482622780492472923361e-227
2.168511615997554627540396e-228
3.399305796814027814341908e-229
5.283030658891109493755162e-230
8.14043623208756549796367e-231
1.243629388178739089407773e-231
1.883735767787527026505697e-232
2.829055865182696082360061e-233
4.212716926567817500042704e-234
6.219977184805135744680339e-235
9.105996369141984527994576e-236
1.321857352680455123544476e-236
1.902682306959144919285677e-237
2.715679634447003319275478e-238
3.843502954489214644571917e-239
5.394088367529353721771555e-240
7.506831012388566751005663e-241
1.035972969563285614675751e-241
1.417746990526668027028001e-242
1.9240340806441081756618e-243
2.589378644400215462293432e-244
3.455827573291248108115128e-245
4.573904235403242667702954e-246
6.003509939972115625076275e-247
7.814678248621030011299808e-248
1.008809301547397337872954e-248
1.291526858423326528128181e-249
1.639828182049019841673906e-250
2.064894244787830120447206e-251
2.578729235501757634113523e-252
3.193933786787754927529957e-253
3.923394280181957341598439e-254
4.779884519130450338083156e-255
5.775580689743628867697126e-256
6.921496175223315114654388e-257
8.226849230063387630627665e-258
9.698383413538967008830657e-259
1.133966757505541022798097e-259
1.315040853089526938090399e-260
1.512581476965651703392019e-261
1.725605295822073695960943e-262
1.952584012382771505939884e-263
2.19142127006442501256872e-264
2.439450885998067202166874e-265
2.693459262177314497754933e-266
2.949733736057550934819399e-267
3.20413729368788473129877e-268
3.452208553551593660740306e-269
3.6892843337948792048749e-270
3.910640551946299510125537e-271
4.111645794847279432966671e-272
4.2879207549797602557088e-273
4.435495961900272286088037e-274
4.550959924306712159113435e-275
4.631589987048202599688071e-276
4.675458907143362787831735e-277
4.681511331359928277021308e-278
4.649605943056579870565403e-279
4.580520931120012185014665e-280
4.475922486356340613224389e-281
4.338298103520318604012517e-282
4.170858411462941174154837e-283
3.977412932179788294334486e-284
3.762226467434303824597981e-285
3.529863647426325577878127e-286
3.285029506611340248027498e-287
3.032413775488825766644166e-288
2.776545931580634810310699e-289
2.521667010032344454208121e-290
2.271622832542913486555677e-291
2.029781787261368088211935e-292
1.798978701797004553600431e-293
1.581484811472074974412929e-294
1.379002435979175348389963e-295
1.192681819041445078878121e-296
1.023156711065920229097804e-297
8.705947104065551508153451e-299
7.347581245849667294818762e-300
6.150711454107451684674593e-301
5.106894099841963242067548e-302
4.205684892070304607242327e-303
3.435284466756269127026015e-304
2.783122831962956925971154e-305
2.236367696957332091478727e-306
1.782348262794572416351038e-307
1.40889190571484230100416e-308
1.104576089205385668354748e-309
8.5890165838391334635023e-311
6.62396368696244514341002e-312
5.066591334400722723604857e-313
3.843561639695941012223364e-314
2.89180064666236178271219e-315
2.157823407908794148749222e-316
1.59688637215545155781559e-317
1.172091694255022826611841e-318
8.546347541761882721166287e-320
6.091829413222569889697093e-321
4.940656458412465441765688e-322
0
0
0
0
0
0
0
0
0
0
0
0
0
0
0
0
0
0
0
0
0
0
0
0
0
0
0
0
0
0
0
0
0
0
0
0
0
0
0
0
0
0
0
0
0
0
0
0
0
0
0
0
0
0
0
0
4.591077924987781491762443e-82
4.60320145354492997198134e-79
1.067561612231734214827718e-76
1.329707779895501093900194e-74
1.116210855839625426124458e-72
7.066643069044473251649276e-71
3.56491633255128983058199e-69
1.47653304995004789856536e-67
5.032294221213769925776955e-66
1.481793009470394027412724e-64
3.656128829353333812290341e-63
1.009463471325449613107621e-61
1.689858835237407439972444e-60
3.987417902687249548018092e-47
5.059384813196049646925614e-47
5.896763933914956514620586e-47
6.757410488033751292687669e-47
7.699084063095872714665825e-47
8.742343340015043481033589e-47
9.899847502367444349670553e-47
1.118303811828151369061121e-46
1.260379001686566249511169e-46
1.417487024775277533896195e-46
1.59101142311022575780045e-46
1.782453851668374767668128e-46
1.993444363283323040845053e-46
2.225752037087603323695159e-46
2.481296307784064455534013e-46
2.762159127973100714239796e-46
3.070598064625844769758863e-46
3.409060421125440027975046e-46
3.780198450586459954195542e-46
4.186885725501149789375296e-46
4.632234762837957455438489e-46
5.119616019049632374350142e-46
5.652678351046566563404087e-46
6.235371039476730775800558e-46
6.871967501602339152314326e-46
7.567090818175698791253227e-46
8.325741160598646579012415e-46
9.153325291921037038139947e-46
1.005568854829100178557597e-45
1.103914948038568413800402e-45
1.211053624906498347853773e-45
1.327722416233035587759453e-45
1.454717848924242485276116e-45
1.592900905827461793224372e-45
1.743202611292319976572746e-45
1.906626408469358698632528e-45
2.084248652524670619587791e-45
2.27723110152985293908572e-45
2.486853122837143573460645e-45
2.714520463688297367328415e-45
2.961682032056696489818097e-45
3.229738300436046672899382e-45
3.520260229861527152373992e-45
3.835563407358457172894941e-45
4.178636915455072562758043e-45
4.551216437353096359226414e-45
4.951905899815913827819493e-45
5.380077569780702900432026e-45
5.845807690518799277034986e-45
6.370889915283238801329472e-45
6.95928694177443617569506e-45
7.559281594357084981042478e-45
8.120091613247953718655588e-45
8.710427043152490140438656e-45
9.544588502780431025584862e-45
1.071713142948761201776463e-44
1.178284586419838691862024e-44
1.250115778223669319100704e-44
1.301884242385151621527563e-44
1.359206165945018612406171e-44
1.425964654649836531705848e-44
4.73974252277198359616989e-44
1.560032698772772338129029e-43
4.849424123480570125851056e-43
1.515748867512429933577787e-42
4.655446876540449164120868e-42
1.405491588531058185722082e-41
4.03444809182978719560221e-41
1.049680507587395796691284e-40
2.803403011521695157321716e-40
1.064766561753755575317954e-39
6.488932073684463717755745e-39
4.81943032279534867674534e-38
3.520019709710448613873251e-37
2.362574492053146839363427e-36
1.435317056663745711666584e-35
7.877527166571835678588826e-35
3.911174198463939896445921e-34
1.755479637497568307619287e-33
7.094323555303158126308034e-33
2.599723591993431258049564e-32
8.907627917362017657372146e-32
2.882873547178166103160195e-31
7.643456277629510621321405e-31
1.237834606448546758947398e-30
1.324820217742257050823848e-30
1.314676490037828095127002e-30
1.223800835724670387186572e-30
8.903703249242642820252947e-31
3.197039468856257675298865e-31
2.617904589196786874249642e-32
1.932547098893440309167506e-34
4.765942055342281697405552e-38
6.333981199920997665890629e-43
7.053106952717819444374722e-48
8.127622172849425120294541e-53
1.159353768868590764383981e-57
1.510574204431013433909499e-62
1.885878494570832999962164e-67
2.55348271141104724873351e-72
3.706289426218263746681188e-77
5.325535136372505415870005e-82
7.907362848342912458172941e-87
1.273921469414032552229717e-91
2.199905699376465196996179e-96
4.033880298235839302783201e-101
8.039718728004886901235363e-106
1.75675083133954050792083e-110
4.154085099469203954890865e-115
1.050127739064808143567569e-119
2.79603762462273223074567e-124
7.687482088893410515406345e-129
2.148253057552832407129545e-133
6.053688804790352877293285e-138
1.71413471442125831768636e-142
4.896231901183397523414651e-147
4.949224023667606367203652e-149
1.934549706375796827977513e-149
9.218067155350239017679235e-150
4.451063797983932619168773e-150
2.081726983243325697507937e-150
9.371907781686662253834351e-151
4.059894778357131261630721e-151
1.702226956982457990667743e-151
6.976631590817953477532629e-152
2.823622568254307901677344e-152
1.136746320256411299897176e-152
4.565925258308550024147067e-153
1.828513683469016541509338e-153
7.280943571818913206119785e-154
2.873670921722239040785711e-154
1.121225239618499703291284e-154
4.316148837038737795589504e-155
1.63691679047032524460559e-155
6.109639241236136327200697e-156
2.242263013358651312031217e-156
8.085747546998568341165594e-157
2.863119690814371552803235e-157
9.949568890430031065975707e-158
3.391629434742670540408752e-158
1.133648171779475099390353e-158
3.714247665856430498649798e-159
1.192535285034992876281356e-159
3.751373081449589389392048e-160
1.156010458758854180606065e-160
3.489313093972118392342761e-161
1.031565326879689594352534e-161
2.986891479997596814000292e-162
8.470489068381755905150841e-163
2.35274803257769577553375e-163
6.400901721104269262396267e-164
1.705824820859254080612069e-164
4.453386668329877128362745e-165
1.139067724250863530117556e-165
2.854674548472022222318256e-166
7.010673845504687345634575e-167
1.687368494608609979152664e-167
3.98070642876656516681891e-168
9.205874503982712585699552e-169
2.087278886516919031567868e-169
4.640482517919123179940859e-170
1.011743242077421904030123e-170
2.163513595702988155194313e-171
4.538255092460680908727982e-172
9.339335856859171752849178e-173
1.8858133148504245031909e-173
3.736755554467356905169243e-174
7.267105576627543945272077e-175
1.387255181537414789110061e-175
2.599779270121953538756094e-176
4.783643426626885110484821e-177
8.643311644334793064040734e-178
1.533759900991281367303255e-178
2.673297074950339738188086e-179
4.577270943884761285056248e-180
7.700035381343962575879908e-181
1.272808451409621577106432e-181
2.067643634434373447323692e-182
3.301334168338539142016253e-183
5.181605533744773633145743e-184
7.995794109301140552143244e-185
1.213233898753058862389176e-185
1.810419298910414252377203e-186
2.657268746256507993188021e-187
3.836978577424397872910173e-188
5.451625960598743713897904e-189
7.623348925632030849525637e-190
1.049480258814865331946774e-190
1.422921442211650368651947e-191
1.901131947682239165425243e-192
2.505255935016777357665183e-193
3.260844177430294009024728e-194
4.202556607042518556787626e-195
5.385618372862732727370982e-196
6.912109731395022733683613e-197
8.989159269614271134527056e-198
1.205477203679468753398037e-198
1.704540102789393820663658e-199
2.595749417431880064977811e-200
4.301263261556270045596375e-201
7.704958837389044455313707e-202
1.463853131522105996365723e-202
2.885940070090594200673318e-203
5.799835850907737889783623e-204
1.173998801502900010587824e-204
2.376187434509595112578296e-205
4.78907898226071280115526e-206
9.589377430624390501430701e-207
1.905300539715786165703222e-207
3.753966977455717390466621e-208
7.332065317043671508209537e-209
1.419380415597535735049939e-209
2.723166798562067195405891e-210
5.177731059836218731619685e-211
9.756459989612473706167934e-212
1.821948282790793641318461e-212
3.371920316380071933006587e-213
6.184777698888572516573328e-214
1.124307911427574967786617e-214
2.025676299842201282970895e-215
3.61732737218750320226493e-216
6.402476282498118498430609e-217
1.12320727010443912775691e-217
1.953137799314483586252417e-218
3.366480481058852446107899e-219
5.751731714753877046181709e-220
9.741131047007776864679447e-221
1.63537444527477700501234e-221
2.721640498150629233550128e-222
4.490126507754344098725115e-223
7.343600789787347937457108e-224
1.190667398137555650800537e-224
1.913863229439791539067432e-225
3.049849017108673124569311e-226
4.818375211356774021476403e-227
7.547192231673104336220513e-228
1.172034164172841713419813e-228
1.804565270065858050235357e-229
2.754797250398053683138914e-230
4.1696396676705160244412e-231
6.257577317521149506882692e-232
9.311498355788029957452626e-233
1.373868793527570506621816e-233
2.009971235723613409590322e-234
2.915813456978300398675652e-235
4.194316666445020170914472e-236
5.982744022727552302870785e-237
8.462201333424768917604996e-238
1.186904779339388505878382e-238
1.650835219646595578580819e-239
2.276944738704786030102341e-240
3.114351547085393438674468e-241
4.224297386866137960433255e-242
5.682222528068731186720931e-243
7.579908395829510075154198e-244
1.002759017437399114056051e-244
1.315591010513022041033583e-245
1.711754955804137798437548e-246
2.208834670644487157499623e-247
2.826767982684842084058134e-248
3.587787747498665370510314e-249
4.516241001309738617397833e-250
5.638262619853363578882865e-251
6.981282748887087843082164e-252
8.573352429527093383033291e-253
1.044227942726618608327021e-253
1.261457627604657410674532e-254
1.511423473840205932547803e-255
1.796135478239229279211481e-256
2.117067105154414282370816e-257
2.47500346796100245126435e-258
2.869892200421132033533658e-259
3.300705296569384196462657e-260
3.765320941935101914781726e-261
4.260434601955899556432122e-262
4.781508276190492180157122e-263
5.322765806472529765980815e-264
5.877240427819079456758944e-265
6.436878412741819861742609e-266
6.992699781678332389938355e-267
7.535013790924523120988239e-268
8.053683470369662027219299e-269
8.538430107791393863298451e-270
8.97916552265081632664067e-271
9.366337493440574494418348e-272
9.691272023405024799173044e-273
9.946495423812755680914485e-274
1.012601956644490739394212e-274
1.022557512939234337947888e-275
1.024278016622964123061814e-276
1.017723471600992625781889e-277
1.003053621367797946654743e-278
9.80621487433069725273595e-280
9.509592695295524205804714e-281
9.147573927397341986414892e-282
8.728378514424669574207464e-283
8.261232839519662142342009e-284
7.756033970115722953965565e-285
7.223004362586610868149756e-286
6.672353665705465778184495e-287
6.11396292490317643626757e-288
5.557104288211519210355102e-289
5.010206457835271281845231e-290
4.480672862897203251482593e-291
3.974756106147966730969568e-292
3.497488908006705263145885e-293
3.052668753321741589286437e-294
2.642890913210763724202513e-295
2.269622585050144471567277e-296
1.933309628552479061739209e-297
1.633506778580801927874491e-298
1.369022239460848338185354e-299
1.138068124875504425275483e-300
9.384091882359194655717414e-302
7.675035627332151387776916e-303
6.226306681677379693997038e-304
5.010029220693183061676233e-305
3.998593115368890864944845e-306
3.165401580945546899745516e-307
2.48543484074995539804735e-308
1.935642338963551734297348e-309
1.495182080370146227235326e-310
1.145529414394743161882588e-311
8.704792574541770596236192e-313
6.560656983812529228644281e-314
4.904215495530489492795497e-315
3.635980568272748244785814e-316
2.673619938303592912675544e-317
1.949909121815814086039897e-318
1.409717507278828764499004e-319
1.004435457995254224310964e-320
8.201489720964692633331042e-322
0
0
0
0
0
0
0
0
0
0
0
0
0
0
0
0
0
0
0
0
0
0
0
0
0
0
0
0
0
0
0
0
0
0
0
0
0
0
0
0
0
0
0
0
0
0
0
0
0
0
0
0
0
0
7.436950252984305639643803e-83
7.870352574005399130428157e-80
4.386720958059674199974391e-77
9.12093889272164373727285e-75
1.08675237978626958611082e-72
8.90298917506333679692593e-71
5.548477031735181269690318e-69
2.770808631265345294862964e-67
1.145823450402802497288788e-65
3.949829745936521521547942e-64
1.186880324769168184734008e-62
2.959520266125824106723432e-61
7.779192492178534116338317e-60
1.363000800990138589776548e-58
7.327328873052291166106472e-46
9.71715436213821695683623e-46
1.176487953542911490581476e-45
1.39953315410057248155448e-45
1.65529043545849790959248e-45
1.951097256937555138134857e-45
2.293080848064855361231143e-45
2.687569328788659993290257e-45
3.14148330906706529637321e-45
3.662485952524117198626242e-45
4.259079332387811629998228e-45
4.940693443510778841014718e-45
5.717779733176059307621001e-45
6.601912624418326877509622e-45
7.605900521396356789608003e-45
8.743907316730062453314288e-45
1.003158528865120761430522e-44
1.148622033451645422032705e-44
1.312689070586277995860267e-44
1.497464055947945041953253e-44
1.705266958973746993087423e-44
1.938653997924770438067329e-44
2.200440210972647171608429e-44
2.493724076976435386564442e-44
2.82191437245056575381148e-44
3.18875944535111442828687e-44
3.598379094558525248777949e-44
4.05529931539333056757299e-44
4.564490249354811225448215e-44
5.131407511081135468336079e-44
5.762036718816328255721386e-44
6.462941615363154704317575e-44
7.241318115457397327006521e-44
8.105055874893815474119332e-44
9.06280069240881744379882e-44
1.012400744538630272302553e-43
1.129900230866435736630662e-43
1.25991115833801267694901e-43
1.403684132434304865936051e-43
1.562588684845166168679742e-43
1.738081944895515485211203e-43
1.931707012597770339763618e-43
2.14523462706239283786286e-43
2.380858762416368215061868e-43
2.64098798823428831163088e-43
2.927430755157814697983256e-43
3.241179127383076160911528e-43
3.584654643298686396778904e-43
3.964940682865648776709832e-43
4.39130998307868350989908e-43
4.863070131784211766778807e-43
5.3632888292819097313581e-43
5.883493954764074898898955e-43
6.458676047013088471597484e-43
7.158619286894021421517427e-43
8.004439271156787664928917e-43
8.898477068429033529150632e-43
9.743957829526939942721002e-43
1.048421301482616746265144e-42
1.123893522187736056243854e-42
1.188831307044448723136738e-42
3.78576955284431370421303e-42
1.345849133375901932725083e-41
4.566484795865679142300876e-41
1.524556558487620272009682e-40
4.883921624377359806447622e-40
1.496562355660808207242668e-39
4.26464166184562683955155e-39
1.092464571770001039711433e-38
2.89377231519660931192362e-38
1.101654168300280214782717e-37
6.684154629563148443953648e-37
4.880919325694627784257751e-36
3.485101497562397013052795e-35
2.281669353483255936001716e-34
1.350278160958191773925621e-33
7.212590736485534759266282e-33
3.48115380768462816735202e-32
1.514412604096957935832866e-31
5.92368530889299964894053e-31
2.116986583264545158904748e-30
7.14668832856384591554584e-30
2.218327027300106305345376e-29
5.061075504733671510923146e-29
6.758332513599401485349902e-29
6.872059331505666230010464e-29
6.739792040860951563883293e-29
5.927802438905262489850587e-29
3.599579194074185057635747e-29