/*--------------------------------*- C++ -*----------------------------------*\
| =========                 |                                                 |
| \\      /  F ield         | OpenFOAM: The Open Source CFD Toolbox           |
|  \\    /   O peration     | Version:  v2012                                 |
|   \\  /    A nd           | Website:  www.openfoam.com                      |
|    \\/     M anipulation  |                                                 |
\*---------------------------------------------------------------------------*/
FoamFile
{
    version     2.0;
    format      ascii;
    class       volScalarField;
    location    "1.9";
    object      alpha.water;
}
// * * * * * * * * * * * * * * * * * * * * * * * * * * * * * * * * * * * * * //

dimensions      [0 0 0 0 0 0 0];


internalField   nonuniform List<scalar> 
96000
(
0
0
0
0
0
0
0
0
0
0
0
0
0
0
0
0
0
0
0
0
0
0
0
0
0
0
0
0
0
0
0
0
0
0
0
0
0
0
0
0
0
0
0
0
0
0
0
0
0
0
0
0
0
0
0
0
0
0
0
0
0
0
0
0
0
0
0
0
0
0
0
0
0
0
0
0
0
0
0
0
0
0
0
0
0
0
0
0
0
0
0
0
0
0
0
0
0
0
0
0
0
0
0
0
0
0
0
0
0
0
0
0
0
0
0
0
0
0
0
0
0
0
0
0
0
0
0
0
0
0
0
0
0
0
0
0
0
0
0
0
0
0
0
0
0
0
0
0
0
0
0
0
0
0
0
0
0
0
0
0
0
0
0
0
0
0
0
0
0
0
0
0
0
0
0
0
0
0
0
0
0
0
0
0
0
0
0
0
0
0
0
0
0
0
0
0
0
0
0
0
0
0
0
0
0
0
0
0
0
0
0
0
0
0
0
0
0
0
0
0
0
0
0
0
0
0
0
0
0
0
0
0
0
0
0
0
0
0
0
0
0
0
0
0
0
0
0
0
0
0
0
0
0
0
0
0
0
0
0
0
0
0
0
0
0
0
0
0
0
0
0
0
0
0
0
0
0
0
0
0
0
0
0
0
0
0
0
0
0
0
0
0
0
0
0
0
0
0
0
0
0
0
0
0
0
0
0
0
0
0
0
0
0
0
0
0
0
0
0
0
0
0
0
0
0
0
0
0
0
0
0
0
0
0
0
0
0
0
0
0
0
0
0
0
0
0
0
0
0
0
0
0
0
0
0
0
0
0
0
0
0
0
0
0
0
0
0
0
0
0
0
0
0
0
0
0
0
0
0
0
0
0
0
0
0
0
0
0
0
0
0
0
0
0
0
0
0
0
0
0
0
0
0
0
0
0
0
0
0
0
0
0
0
0
0
0
0
0
0
0
0
0
0
0
0
0
0
0
0
0
0
0
0
0
0
0
0
0
0
0
0
0
0
0
0
0
0
0
0
0
0
0
0
0
0
0
0
0
0
0
0
0
0
0
0
0
0
0
0
0
0
0
0
0
0
0
0
0
0
0
0
0
0
0
0
0
0
0
0
0
0
0
0
0
0
0
0
0
0
0
0
0
0
0
0
0
0
0
0
0
0
0
0
0
0
0
0
0
0
0
0
0
0
0
0
0
0
0
0
0
0
0
0
0
0
0
0
0
0
0
0
0
0
0
0
0
0
0
0
0
0
0
0
0
0
0
0
0
0
0
0
0
0
0
0
0
0
0
0
0
0
0
0
0
0
0
0
0
0
0
0
0
0
0
0
0
0
0
0
0
0
0
0
0
0
0
0
0
0
0
0
0
0
0
0
0
0
0
0
0
0
0
0
0
0
0
0
0
0
0
0
0
0
0
0
0
0
0
0
0
0
0
0
0
0
0
0
0
0
0
0
0
0
0
0
0
0
0
0
0
0
0
0
0
0
0
0
0
0
0
0
0
0
0
0
0
0
0
0
0
0
0
0
0
0
0
0
0
0
0
0
0
0
0
0
0
0
0
0
0
0
0
0
0
0
0
0
0
0
0
0
0
0
0
0
0
0
0
0
0
0
0
0
0
0
0
0
0
0
0
0
0
0
0
0
0
0
0
0
0
0
0
0
0
0
0
0
0
0
0
0
0
0
0
0
0
0
0
0
0
0
0
0
0
0
0
0
0
0
0
0
0
0
0
0
0
0
0
0
0
0
0
0
0
0
0
0
0
0
0
0
0
0
0
0
0
0
0
0
0
0
0
0
0
0
0
0
0
0
0
0
0
0
0
0
0
0
0
0
0
0
0
0
0
0
0
0
0
0
0
0
0
0
0
0
0
0
0
0
0
0
0
0
0
0
0
0
0
0
0
0
0
0
0
0
0
0
0
0
0
0
0
0
0
0
0
0
0
0
0
0
0
0
0
0
0
0
0
0
0
0
0
0
0
0
0
0
0
0
0
0
0
0
0
0
0
0
0
0
0
0
0
0
0
0
0
0
0
0
0
0
0
0
0
0
0
0
0
0
0
0
0
0
0
0
0
0
0
0
0
0
0
0
0
0
0
0
0
0
0
0
0
0
0
0
0
0
0
0
0
0
0
0
0
0
0
0
0
0
0
0
0
0
0
0
0
0
0
0
0
0
0
0
0
0
0
0
0
0
0
0
0
0
0
0
0
0
0
0
0
0
0
0
0
0
0
0
0
0
0
0
0
0
0
0
0
0
0
0
0
0
0
0
0
0
0
0
0
0
0
0
0
0
0
0
0
0
0
0
0
0
0
0
0
0
0
0
0
0
0
0
0
0
0
0
0
0
0
0
0
0
0
0
0
0
0
0
0
0
0
0
0
0
0
0
0
0
0
0
0
0
0
0
0
0
0
0
0
0
0
0
0
0
0
0
0
0
0
0
0
0
0
0
0
0
0
0
0
0
0
0
0
0
0
0
0
0
0
0
0
0
0
0
0
0
0
0
0
0
0
0
0
0
0
0
0
0
0
0
0
0
0
0
0
0
0
0
0
0
0
0
0
0
0
0
0
0
0
0
0
0
0
0
0
0
0
0
0
0
0
0
0
0
0
0
0
0
0
0
0
0
0
0
0
0
0
0
0
0
0
0
0
0
0
0
0
0
0
0
0
0
0
0
0
0
0
0
0
0
0
0
0
0
0
0
0
0
0
0
0
0
0
0
0
0
0
0
0
0
0
0
0
0
0
0
0
0
0
0
0
0
0
0
0
0
0
0
0
0
0
0
0
0
0
0
0
0
0
0
0
0
0
0
0
0
0
0
0
0
0
0
0
0
0
0
0
0
0
0
0
0
0
0
0
0
0
0
0
0
0
0
0
0
0
0
0
0
0
0
0
0
0
0
0
0
0
0
0
0
0
0
0
0
0
0
0
0
0
0
0
0
0
0
0
0
0
0
0
0
0
0
0
0
0
0
0
0
0
0
0
0
0
0
0
0
0
0
0
0
0
0
0
0
0
0
0
0
0
0
0
0
0
0
0
0
0
0
0
0
0
0
0
0
0
0
0
0
0
0
0
0
0
0
0
0
0
0
0
0
0
0
0
0
0
0
0
0
0
0
0
0
0
0
0
0
0
0
0
0
0
0
0
0
0
0
0
0
0
0
0
0
0
0
0
0
0
0
0
0
0
0
0
0
0
0
0
0
0
0
0
0
0
0
0
0
0
0
0
0
0
0
0
0
0
0
0
0
0
0
0
0
0
0
0
0
0
0
0
0
0
0
0
0
0
0
0
0
0
0
0
0
0
0
0
0
0
0
0
0
0
0
0
0
0
0
0
0
0
0
0
0
0
0
0
0
0
0
0
0
0
0
0
0
0
0
0
0
0
0
0
0
0
0
0
0
0
0
0
0
0
0
0
0
0
0
0
0
0
0
0
0
0
0
0
0
0
0
0
0
0
0
0
0
0
0
0
0
0
0
0
0
0
0
0
0
0
0
0
0
0
0
0
0
0
0
0
0
0
0
0
0
0
0
0
0
0
0
0
0
0
0
0
0
0
0
0
0
0
0
0
0
0
0
0
0
0
0
0
0
0
0
0
0
0
0
0
0
0
0
0
0
0
0
0
0
0
0
0
0
0
0
0
0
0
0
0
0
0
0
0
0
0
0
0
0
0
0
0
0
0
0
0
0
0
0
0
0
0
0
0
0
0
0
0
0
0
0
0
0
0
0
0
0
0
0
0
0
0
0
0
0
0
0
0
0
0
0
0
0
0
0
0
0
0
0
0
0
0
0
0
0
0
0
0
0
0
0
0
0
0
0
0
0
0
0
0
0
0
0
0
0
0
0
0
0
0
0
0
0
0
0
0
0
0
0
0
0
0
0
0
0
0
0
0
0
0
0
0
0
0
0
0
0
0
0
0
0
0
0
0
0
0
0
0
0
0
0
0
0
0
0
0
0
0
0
0
0
0
0
0
0
0
0
0
0
0
0
0
0
0
0
0
0
0
0
0
0
0
0
0
0
0
0
0
0
0
0
0
0
0
0
0
0
0
0
0
0
0
0
0
0
0
0
0
0
0
0
0
0
0
0
0
0
0
0
0
0
0
0
0
0
0
0
0
0
0
0
0
0
0
0
0
0
0
0
0
0
0
0
0
0
0
0
0
0
0
0
0
0
0
0
0
0
0
0
0
0
0
0
0
0
0
0
0
0
0
0
0
0
0
0
0
0
0
0
0
0
0
0
0
0
0
0
0
0
0
0
0
0
0
0
0
0
0
0
0
0
0
0
0
0
0
0
0
0
0
0
0
0
0
0
0
0
0
0
0
0
0
0
0
0
0
0
0
0
0
0
0
0
0
0
0
0
0
0
0
0
0
0
0
0
0
0
0
0
0
0
0
0
0
0
0
0
0
0
0
0
0
0
0
0
0
0
0
0
0
0
0
0
0
0
0
0
0
0
0
0
0
0
0
0
0
0
0
0
0
0
0
0
0
0
0
0
0
0
0
0
0
0
0
0
0
0
0
0
0
0
-1.385277408629752190140234e-53
-1.718762230394584182711023e-41
-7.167953490769252212709268e-40
-1.491189664359292219494594e-38
-2.063337603359117585568651e-37
-2.136299747079803804773124e-36
-1.765384230680218999092471e-35
-1.212919275763049853227436e-34
-7.126496150281984170849318e-34
-3.655340169982189538064637e-33
-1.662752538892899462848671e-32
-6.791589871771401301679318e-32
-2.516082379414202817079e-31
-2.836855331387438283329282e-31
-3.19127855075940656969164e-31
-3.581658952986723394581007e-31
-4.01025383673341696208267e-31
-4.479226692233178371899561e-31
-4.990596814181716411316792e-31
-5.546182755444140512675033e-31
-6.14753984715033594232267e-31
-6.795892234149843506416858e-31
-7.492060131475884264874858e-31
-8.236383294872901310532351e-31
-9.028642011941020857599168e-31
-9.867977253138349409983547e-31
-1.075281196421031497082566e-30
-1.168077582132089612831674e-30
-1.264863609220895336280188e-30
-1.365223753333090204414935e-30
-1.468645448410872773667843e-30
-1.574515847313670751205569e-30
-1.682120470455007001512023e-30
-1.790644072275188253531878e-30
-1.899174033875044672299662e-30
-2.006706552275353534806633e-30
-2.112155841145228990574223e-30
-2.214366483724172034275483e-30
-2.312128986164335444541753e-30
-2.404198469795749254028207e-30
-2.489316316204396461196655e-30
-2.566234443130082103338382e-30
-2.633741746985717661654289e-30
-2.690692105469757397413329e-30
-2.736033198600923243632872e-30
-2.768835286692311127126146e-30
-2.788318987871723360943797e-30
-2.793881034268039353996821e-30
-2.785116962766460833927889e-30
-2.761839719826706127116364e-30
-2.724093234808351656429243e-30
-2.672160144481320444996225e-30
-2.606563031711659318739968e-30
-2.528058768983376945716678e-30
-2.437625824115461216764639e-30
-2.336444679456981593066948e-30
-2.225871822188500896280879e-30
-2.107408065108719372176484e-30
-1.98266223625465740358325e-30
-1.853311513834289265138705e-30
-1.721059863695870165282477e-30
-1.587596146298290747833744e-30
-1.454553489443600264444836e-30
-1.32347146763748680850738e-30
-1.19576249038930896691953e-30
-1.072683587503220444621361e-30
-9.553145024184535780628979e-31
-8.445426825138901666578056e-31
-7.410554088555904714727735e-31
-6.453389595868472140768341e-31
-5.576843732596128494461625e-31
-4.781990910623869669227791e-31
-4.068235266455359323275788e-31
-4.515649082192464257307378e-31
-4.752653039412466344058431e-31
-4.759058444062101637562492e-31
-4.54721743154317580979603e-31
-4.156440450036899442585402e-31
-3.642746388985987368831528e-31
-3.067179391816229261325012e-31
-2.485603908919328355866979e-31
-1.94181998776061814251924e-31
-1.464554249227610386222904e-31
-1.067822536782531764249402e-31
-7.535595339534193838023083e-32
-5.152820664313443122881998e-32
-3.417647000816171808393163e-32
-2.200776490982982208469237e-32
-1.377123736995361392606275e-32
-8.380562156007111969037009e-33
-4.963720306716490161112713e-33
-2.863416794946300854891774e-33
-1.609883885113581452968862e-33
-8.826919193705250827614924e-34
-4.722632528659756379501639e-34
-2.4669518614713111196954e-34
-1.258828013816084045352123e-34
-6.277933320498485554524837e-35
-3.061368603258828283121872e-35
-1.460349438629660982230793e-35
-6.817484524954596957464141e-36
-3.115966505375757896155011e-36
-1.394856071484435112084002e-36
-6.11776867133741731442506e-37
-2.629877988281862217429274e-37
-1.108414491376222342202963e-37
-4.581753444103365900174765e-38
-1.858048997011649427184441e-38
-7.394452519681830819258173e-39
-2.888687797316850541064298e-39
-1.108047387161342154982008e-39
-4.17438048389864266648609e-40
-1.544934891041826027733703e-40
-5.618458294226072959323979e-41
-2.008230053907261464641078e-41
-7.056606347294016267451792e-42
-2.43813506050567237978163e-42
-8.284934107350500883835129e-43
-2.769342170363615455125507e-43
-9.107606591350855129407996e-44
-2.947494092905895563401072e-44
-9.388600865814204144145134e-45
-2.943904119269738604173101e-45
-9.088545690879397430734693e-46
-2.763018409230046971161258e-46
-8.27294651919323611548662e-47
-2.440000476388719173946925e-47
-7.089848360460541628665676e-48
-2.029847322870027017033693e-48
-5.72702769701588122075899e-49
-1.592549289284337072092514e-49
-4.365264428423056474395626e-50
-1.179605894624583057237906e-50
-3.142859354837129519315604e-51
-8.257068387064917071470446e-52
-2.139387409761251406405847e-52
-5.4671848940934859450309e-53
-1.378146900591340243761987e-53
-3.427124530782455309164453e-54
-8.408347607405057025754376e-55
-2.035542724430441004545288e-55
-4.862724035261479887692422e-56
-1.146432750278314474569757e-56
-2.667629633800368867646239e-57
-6.126996486604627794437695e-58
-1.389155272471373577555022e-58
-3.109350634501806336546574e-59
-6.871282868109433314231911e-60
-1.499296236963446036723271e-60
-3.230350576746600117406627e-61
-6.873126745680111272983479e-62
-1.444209738225651491015219e-62
-2.997125737210513559688309e-63
-6.143343721894396673685898e-64
-1.243812800442734121918666e-64
-2.487594506700728293526454e-65
-4.914748674979104404063475e-66
-9.592720028404551433151649e-67
-1.849785097643710891576998e-67
-3.524186447264569400183719e-68
-6.633951555458540939493061e-69
-1.2338941312750406280425e-69
-2.267726310832787490662148e-70
-4.118357067897243968607778e-71
-7.390773850233046623591088e-72
-1.310686110677665410320184e-72
-2.296989116247255271992918e-73
-3.978115486420390505770503e-74
-6.808615848893217942753897e-75
-1.151611355389176751993493e-75
-1.92494833920614673952621e-76
-3.179773002606211864657899e-77
-5.190774644764504791198759e-78
-8.373737359730989883136562e-79
-1.334892572089757825448748e-79
-2.102800482160090374665434e-80
-3.273070040640706323008599e-81
-5.033776316844119274954763e-82
-7.648641925911884881266832e-83
-1.14812893547484433376102e-83
-1.702431787512040210872176e-84
-2.49327269718980854130374e-85
-3.606027890640086993295694e-86
-5.149605032299007644036895e-87
-7.259660034098908883038078e-88
-1.010068450134794680372913e-88
-1.386598938322535631065575e-89
-1.877428717485240256723601e-90
-2.50612326134404761973578e-91
-3.296395400933100606006342e-92
-4.269634263776549713738282e-93
-5.441272913021002749648829e-94
-6.815763901367501815503461e-95
-8.379966698195717266466346e-96
-1.009482221137062837504564e-96
-1.188530415018870102055594e-97
-1.36287986705661143954236e-98
-1.514227204630638570470261e-99
-1.61688343986288461763014e-100
-1.6364581825817966597735e-101
-1.528687763486075516991917e-102
-1.238548607346619786466383e-103
-6.998162988030341006575519e-105
1.647602319339470051516209e-106
1.442505000793274623521716e-106
3.228939684576695536561629e-107
5.62488653624509490166016e-108
8.73251103223993454884027e-109
1.265034570446260776105881e-109
1.746743046501563751328449e-110
2.325680579569659546816198e-111
3.006869454201788368203655e-112
3.79237953046438981979903e-113
4.680717461508376762732285e-114
5.666327597437344957321957e-115
6.73925532213249372883775e-116
7.885017869660155027216063e-117
9.084717274922477596062204e-118
1.031541547294631939191775e-118
1.155077361902605058098218e-119
1.276193785061984154079626e-120
1.391863367281575981948345e-121
1.49904128035197406400168e-122
1.59479815015223039618939e-123
1.676452970732177395034597e-124
1.741697689643031241275831e-125
1.788705393015556423202861e-126
1.8162150269448926887359e-127
1.823587189734355963678415e-128
1.810827577944801657070647e-129
1.778576983416628716084846e-130
1.728069108929177835699759e-131
1.661059685350083988729077e-132
1.579732241968799501281746e-133
1.486587253468255253272066e-134
1.384322165462764140552656e-135
1.275709951552102081113372e-136
1.163483406170882291428507e-137
1.050231411889133194732519e-138
9.383120621797560933492426e-140
8.297859218188051149719178e-141
7.263710258191365085838017e-142
6.294196039878042719935218e-143
5.399150985590177839797804e-144
4.584869104442943697535272e-145
3.854395206303215168033027e-146
3.207922035947080841917401e-147
2.643254608728833140249144e-148
2.156305088408933312957432e-149
1.741585902241885484874497e-150
1.392674692242036459158685e-151
1.102631403594424634278508e-152
8.643546284311356274760934e-154
6.708706936743042829351664e-155
5.155544943899361338473361e-156
3.922854776829347147749682e-157
2.955453748123889272942559e-158
2.20466285826131749239263e-159
1.628386622515298117090525e-160
1.190887921271470687053067e-161
8.623478109903730918425349e-163
6.182895972503085831297707e-164
4.389332919685134822752565e-165
3.085325283734894075305048e-166
2.147323822594569645231474e-167
1.479742448787945211224211e-168
1.009634451796502050674466e-169
6.820695292551508107862811e-171
4.562219815868519439777862e-172
3.021364029935758198077507e-173
1.981093727555566782083755e-174
1.286108362260899994601911e-175
8.266387281849099266380062e-177
5.260345747548731992071813e-178
3.314114687410641768461316e-179
2.067137979930596922877301e-180
1.276479143954637276942968e-181
7.803574638427222944869819e-183
4.722826589337867870235623e-184
2.829642371088316449019055e-185
1.678318923835075538598726e-186
9.854230944230074356858458e-188
5.727536402326468645736572e-189
3.295346556820848393700395e-190
1.876779906845456533797593e-191
1.058023164822439682127161e-192
5.903870432859664829491706e-194
3.260830043532006682370993e-195
1.782619990533361920018066e-196
9.645347209926198729392044e-198
5.165285461864645285485731e-199
2.737642309160933131147104e-200
1.435995896313640151166548e-201
7.454382516624457233923852e-203
3.829478619708561736977744e-204
1.946813252419471235964808e-205
9.79382705172300096104067e-207
4.875403094434427285758023e-208
2.401511674278912049971361e-209
1.170471130843754961199739e-210
5.644479945345445220206427e-212
2.693142988048651872238503e-213
1.271310974002267273265738e-214
5.937250410656140521999631e-216
2.743115059411747770790657e-217
1.253750983934603563176409e-218
5.668527791068907145749801e-220
2.535150436009637910370006e-221
1.121486325924219668337614e-222
4.907077807855247338120364e-224
2.123597128058236030892601e-225
9.089136513098266325296287e-227
3.847291531058019866102981e-228
1.610459348108504991301773e-229
6.666324056003133978925025e-231
2.72862839905050590243667e-232
1.104339391410655090999369e-233
4.419156039102366750192237e-235
1.748367188312491256861544e-236
6.838485719017096555384833e-238
2.644223621658723059682239e-239
1.010703581999392701878392e-240
3.818675460267413000188029e-242
1.426068621408205797300834e-243
5.263585661702963807099373e-245
1.920042687439631513650884e-246
6.921524331299938893517866e-248
2.465627565109311195633645e-249
8.678819616875695758866449e-251
3.018375742702021042278031e-252
1.037138551889507299965596e-253
3.520641798966173214132534e-255
1.180588631020576615446397e-256
3.910537815896810910694849e-258
1.279393934717780071037719e-259
4.133996084555746690008287e-261
1.319171223705001469245941e-262
4.156848906489120294917892e-264
1.29337703971991174790995e-265
3.973278416767852587650079e-267
1.205036233095739149301507e-268
3.607795963198862090378035e-270
1.066196491727828165908944e-271
3.10990949668227279263037e-273
8.952295107906749490351052e-275
2.543063325567725497582481e-276
7.128122829284773455921495e-278
1.971271733706855172839752e-279
5.378092220828731528101171e-281
1.447359820606238146407426e-282
3.841902386068445510117745e-284
1.005753674314265921292265e-285
2.596361940071171009931503e-287
6.608742075702179727656468e-289
1.658451567444740036034315e-290
4.102668515826418945794728e-292
1.000363077496846997897821e-293
2.403937059435086781734972e-295
5.692565045603007920505082e-297
1.328177822437394680675711e-298
3.052882852405191865050468e-300
6.912109529325270628423664e-302
1.541334619204048400767041e-303
3.384595478737720186128813e-305
7.317725250980720892407485e-307
1.557539780511048396988643e-308
3.263084509821140585576466e-310
6.72781652253876118808064e-312
1.364913658251361162886896e-313
2.724258208542799794727833e-315
5.347766550585652594167181e-317
1.047419169183442673654326e-318
1.976262583364986176706275e-320
0
0
0
0
0
0
0
0
0
0
0
0
0
0
0
0
0
0
0
0
0
0
0
0
0
0
-3.894824883447469953593462e-39
-1.632117699733289004072071e-37
-3.411268922035205833973015e-36
-4.741487654859632774143928e-35
-4.930540654437498046486776e-34
-4.091466951656903033604194e-33
-2.822224639846075267070392e-32
-1.664413985544255832458147e-31
-8.567183661823402367845384e-31
-3.909814276924248813640799e-30
-1.60179015079098464968284e-29
-5.950405474425356337536191e-29
-2.021056339886030508768875e-28
-6.320088252970211570435161e-28
-6.929391629036073991955288e-28
-7.578043740799912018418178e-28
-8.265792442168940799852374e-28
-8.99191041197197773788903e-28
-9.755141414453598575057691e-28
-1.055364901942489382110411e-27
-1.138496940596632845163626e-27
-1.224597003339974419224899e-27
-1.313281609259336392278604e-27
-1.404094673862110232122016e-27
-1.496506314099037360710386e-27
-1.589913035870490705480048e-27
-1.683639494352171375465856e-27
-1.776941998630593091195045e-27
-1.869013904077734486594636e-27
-1.958992998134136386498504e-27
-2.045970937590188795519958e-27
-2.129004738374798986274626e-27
-2.207130253112047310308682e-27
-2.279377498690014742120784e-27
-2.344787617804673929175056e-27
-2.402431177504165770042416e-27
-2.451427427346383686404677e-27
-2.490964063573780348393087e-27
-2.520316977759260145401513e-27
-2.538869412945698153712155e-27
-2.546129911643882840776694e-27
-2.541748422163007642971699e-27
-2.52552993607868221567021e-27
-2.497445062818041075174058e-27
-2.457637008863802584827069e-27
-2.406424519086188406833431e-27
-2.344300454761942790930345e-27
-2.271925823812984833782963e-27
-2.190119238855743283720045e-27
-2.0998419513645380410771e-27
-2.002178787808283428004619e-27
-1.898315487209888790934689e-27
-1.789513099856633541414034e-27
-1.677080244567955643973537e-27
-1.562344128388657626885573e-27
-1.446621300533274729400751e-27
-1.331189136495172121486104e-27
-1.217259025519783448440797e-27
-1.105952164972821110829047e-27
-9.982787513039208974712917e-28
-8.951212049849804294488595e-28
-7.972218842444107826392289e-28
-7.051755399420647440761722e-28
-6.194265532157359047720744e-28
-5.402707907851372337675908e-28
-4.67861721863054118346988e-28
-4.022202760939528229620582e-28
-3.432477923998640800071252e-28
-2.90741320028868074213492e-28
-2.444104884505178829492721e-28
-2.038951619012739014860615e-28
-1.687831342787826225469951e-28
-1.386271950910349216680248e-28
-1.129609996993469876902235e-28
-1.123359908271000695211744e-28
-1.065560608726931246214789e-28
-9.666336679304534694324679e-29
-8.406059493400122758699387e-29
-7.022322538558547282573771e-29
-5.646040878874707371185149e-29
-4.376424450081608901112739e-29
-3.275484711284471849622988e-29
-2.370399072093946922987132e-29
-1.660787881163586554919237e-29
-1.127885563337143334374474e-29
-7.432672912276174915618198e-30
-4.757612695561737371735644e-30
-2.960738211631418847144271e-30
-1.792881723377894894373083e-30
-1.05728407783363969045938e-30
-6.076369620060185618962717e-31
-3.405740633655787773625623e-31
-1.86284457459269876555559e-31
-9.94956457693294369306059e-32
-5.192088945328412120292231e-32
-2.648644877971347821756862e-32
-1.321502036660399799235367e-32
-6.451792793877569181854024e-33
-3.083581680124111844239768e-33
-1.443364072440583497204154e-33
-6.619335044940399691841948e-34
-2.975322257347091621798486e-34
-1.311260992261514893283698e-34
-5.667948263921275078764035e-35
-2.403713695948256465917703e-35
-1.000440320600367687947522e-35
-4.087672864131804934541289e-36
-1.640047371910281441656267e-36
-6.463163280204077309040979e-37
-2.502362566610333139370256e-37
-9.520827937378163962994219e-38
-3.560549445758084167268824e-38
-1.309095575144380470403371e-38
-4.732906994847181457712783e-39
-1.682958599925402979800013e-39
-5.886956999182509545687276e-40
-2.02609668438761277245347e-40
-6.862118749924684131353692e-41
-2.287489554094688986581524e-41
-7.506444030456776799175515e-42
-2.425227835766883113611005e-42
-7.715793087929350126290501e-43
-2.417590235891325228129921e-43
-7.46141448503736924818701e-44
-2.268591326776928623880373e-44
-6.795890745024204793419597e-45
-2.006079437728745087613078e-45
-5.836014606110404570828962e-46
-1.673417762105807467394433e-46
-4.730029292219215903252704e-47
-1.318089584601011142216254e-47
-3.62156609961189495918306e-48
-9.812183270879199058129192e-49
-2.621794502105140639021123e-49
-6.90939662069642880988216e-50
-1.796112486141700347892931e-50
-4.605970022865379640237592e-51
-1.165316483917044425514503e-51
-2.908986857505189248566564e-52
-7.165614806803881288139499e-53
-1.741873529143817808103451e-53
-4.178955832008685769502293e-54
-9.89560634499919681182297e-55
-2.312996186395951615947821e-55
-5.337017975610354038588439e-56
-1.21575479086125244973539e-56
-2.734312813790462711812102e-57
-6.072053378360432503110478e-58
-1.331488488038559361066594e-58
-2.883247792448399947536449e-59
-6.165900170150906650092804e-60
-1.302288520291017420203411e-60
-2.716685395842441340667875e-61
-5.597796066059954534939075e-62
-1.139366680126649103635732e-62
-2.2908715546052536538744e-63
-4.550401608614869698431832e-64
-8.9295659976273565607914e-65
-1.731256196927940045865467e-65
-3.316349196803313758400927e-66
-6.276874277680390365267113e-67
-1.173886064336180717167777e-67
-2.169309712875996438190732e-68
-3.961344779339071397128302e-69
-7.148256156940638486838686e-70
-1.274686302585009360516245e-70
-2.246259886097866345958595e-71
-3.911795266551465841665513e-72
-6.73218024023605663574676e-73
-1.144987851380101759561144e-73
-1.92447089293290245890352e-74
-3.196572101326607158730103e-75
-5.247048061260504306148071e-76
-8.511276308201168153311224e-77
-1.364306296162847918217174e-77
-2.160983105785697358409595e-78
-3.382156860598423869568767e-79
-5.230158880094481638458604e-80
-7.990708179874135926895987e-81
-1.206060815366263182935306e-81
-1.798141276690001863108463e-82
-2.647877037785671573123997e-83
-3.85061483229235482477292e-84
-5.529014708293574922312006e-85
-7.837253388726514152155488e-86
-1.096413958449435923119911e-86
-1.513404219237166249163689e-87
-2.060413495969105250801528e-88
-2.765602580127272530739507e-89
-3.657940154527875597528829e-90
-4.764493391324431680980829e-91
-6.106343384911636653412934e-92
-7.692820055473133518385698e-93
-9.513779316528695983449034e-94
-1.152971648114448331247903e-94
-1.365963385559381475502129e-95
-1.576676420185547390947024e-96
-1.764249733200117065302735e-97
-1.898915960061225394359129e-98
-1.940264163577988746559064e-99
-1.835623424128331526787137e-100
-1.518738150903066630505375e-101
-9.089350019603002389572502e-103
8.90006623779728562559691e-105
1.584018978557982584435741e-104
3.696869632595557150061883e-105
6.556878473755548354139819e-106
1.029734904125835098311485e-106
1.504959616446277014209057e-107
2.093573467009785774890112e-108
2.806047575861644682380232e-109
3.650231628894176831698173e-110
4.630462910332266187962724e-111
5.746726138944619578075066e-112
6.993930885784291485148262e-113
8.361374405479110677407467e-114
9.832452893058538830919887e-115
1.138467315160161386026355e-115
1.298999971611405534260297e-116
1.461555058687656754147716e-117
1.622462947188109329670541e-118
1.777805592273496722591837e-119
1.923572938553970515870912e-120
2.055834145525691712121855e-121
2.170913478383133007014972e-122
2.265559893345688096762644e-123
2.337099406790921216446959e-124
2.383560296648493560197044e-125
2.40376297544379899709637e-126
2.397368845326590467742999e-127
2.364885375675345854866703e-128
2.307627767892105388316954e-129
2.227640608279361697300555e-130
2.127585591611967287996722e-131
2.010603501017478859877211e-132
1.880159994901049652289597e-133
1.739885298491030445790545e-134
1.593417628792619293546412e-135
1.444259177388614732770037e-136
1.295651879399803050118716e-137
1.150478196408089564969676e-138
1.011189944278616522192616e-139
8.797660088954107370336398e-141
7.576977959427014352567981e-142
6.459995980948954403143185e-143
5.452398288064034332168234e-144
4.555883090631560562118484e-145
3.768744959096000711340503e-146
3.086516621588299283528933e-147
2.50262498196259900368445e-148
2.009023143177039666431442e-149
1.596768753122629078763338e-150
1.256528030075359590554967e-151
9.789935570257564147186884e-153
7.552117299634199627996e-154
5.768221860435585900986823e-155
4.362164106550745029014292e-156
3.266259966619640908486386e-157
2.421528176989110368648894e-158
1.777538940551876719173738e-159
1.291932448646748719066023e-160
9.29718223178133580526766e-162
6.624498741799831930357043e-163
4.673515223901153465016364e-164
3.264537271263964962961464e-165
2.257796837196240008100755e-166
1.546076046311361122329205e-167
1.048230258423316926025789e-168
7.036538402113599312036795e-170
4.676643293406201607881302e-171
3.077358814878198678560362e-172
2.004870147578974095780531e-173
1.293164338506233733116038e-174
8.258008331901588342446556e-176
5.220900846852965945373189e-177
3.267820186170042902015024e-178
2.02491652762421937586497e-179
1.242183359596497189361869e-180
7.543743079957416632263549e-182
4.535271784449137269405459e-183
2.699151729422687993049846e-184
1.590196503940615877799654e-185
9.273964520822401373286578e-187
5.353804307657740035955737e-188
3.059376542485140659386665e-189
1.730483101325608089110246e-190
9.688489229775281755634163e-192
5.368945162242295684595212e-193
2.944799218412074658768183e-194
1.59862091651862221368487e-195
8.589092947866202188482156e-197
4.567196665523938642344458e-198
2.403482532853139517967583e-199
1.251725154097579833738476e-200
6.451211812641168552525528e-202
3.290221590157095498679906e-203
1.660532507522424159321326e-204
8.292672489810026638773436e-206
4.097818293639877852898735e-207
2.003584789996227607541119e-208
9.692705845293282919221252e-210
4.639270356245912974330134e-211
2.196880160965196870469859e-212
1.029199119124751129039808e-213
4.76993802717587668222891e-215
2.186904971635555107403839e-216
9.918228150473888035893088e-218
4.449467613440807789823066e-219
1.974395461592839754212709e-220
8.665514105025641241682596e-222
3.761578775273353835069757e-223
1.614889272586243372328276e-224
6.856347061014136049457171e-226
2.878727463052328106857097e-227
1.195214465074995092832562e-228
4.906909274097957201701337e-230
1.991893075072262205492073e-231
7.994628027155724509223934e-233
3.17236180623124653536401e-234
1.244505593418565416636278e-235
4.826337256853834240848318e-237
1.85021258912790477517838e-238
7.011076585573400869804042e-240
2.62592514079740167787384e-241
9.720518250239498061714293e-243
3.556151841621567513111443e-244
1.285667770827940207920741e-245
4.593122357655718315084123e-247
1.621401962960901674148018e-248
5.655211078853055638944176e-250
1.948739543874810594440315e-251
6.634014368123457114576053e-253
2.230934302474886207479705e-254
7.410617348632894794768934e-256
2.431353033961297678431072e-257
7.878359271140017281448631e-259
2.521070834955020165195885e-260
7.966406715854179796229281e-262
2.485615582921076956209953e-263
7.657105688833459168051828e-265
2.328728445869116855198314e-266
6.991334895362187368381209e-268
2.071815611606695390402186e-269
6.059735384857136115413398e-271
1.749156719385393780807121e-272
4.982373946060177393661951e-274
1.400346608440185644773058e-275
3.883153175338206412309868e-277
1.062283381682784486852894e-278
2.866548195933576860070814e-280
7.629501377923697242463527e-282
2.002650083378205299075121e-283
5.183687812790955171933983e-285
1.322967361766090007545431e-286
3.328790238015681139195505e-288
8.256575933546672366123509e-290
2.018541794035260981637005e-291
4.863471472248846661441471e-293
1.154705240789336582418608e-294
2.701194777156887476099578e-296
6.225053168232100866229218e-298
1.413102001212805626160535e-299
3.159268613811024629243545e-301
6.955364177463800523192814e-303
1.507681033878983820601641e-304
3.217285410049237185226922e-306
6.757602690180193491720859e-308
1.396848168457540468221777e-309
2.841108439276598411774673e-311
5.685059633466238187915229e-313
1.118963827226421903223446e-314
2.165786165109688351052407e-316
4.110626173399171247549052e-318
7.905050333459944706825101e-320
0
0
0
0
0
0
0
0
0
0
0
0
0
0
0
0
0
0
0
0
0
0
0
0
0
-5.138429659824077535716848e-41
-8.396898021619146218401872e-38
-3.465284358180526042645466e-36
-7.1935670515292926390031e-35
-9.951463663968524609456104e-34
-1.030746272087490142605075e-32
-8.522631189255835550392547e-32
-5.858616226075929598261556e-31
-3.443532670587612402635188e-30
-1.766558040542064296304615e-29
-8.035011745547872333718998e-29
-3.280657973935791298464662e-28
-1.214520589848876639730063e-27
-4.110674980620292576106002e-27
-1.280867401793430585402883e-26
-1.422225893885706250568897e-26
-1.574758876493760964130524e-26
-1.738672689676287401133761e-26
-1.914063384691018937030804e-26
-2.100898930734906323704117e-26
-2.299001304035390678950442e-26
-2.508028896852717173836643e-26
-2.727459752609223006721619e-26
-2.956576197240707016575922e-26
-3.194451492414790744232214e-26
-3.439939179542630199861866e-26
-3.691665810319766081667426e-26
-3.948027765555818279798209e-26
-4.207192845072126818687901e-26
-4.467107263584656679427421e-26
-4.725508607489462414570738e-26
-4.979945193011028681814222e-26
-5.227802116193741339646609e-26
-5.466334100228020542896891e-26
-5.692705027981957528046191e-26
-5.904033801843756119863659e-26
-6.097445905800840821665526e-26