# geometry NO_DATA 456
#  x  y  z
4.345199521696487821031951 0.02416348621814761246651138 2.128963964521659590900526
4.34039904339297599733527 -0.01666666666666664908813544 2.132281264805561793451716
4.345199521696487821031951 -0.009169847115185722138952507 2.128963964521659590900526
4.331567420429752957033998 -0.0009965792597785582979802443 2.140399043392975819699586
4.327536275770042628607825 -0.02472895598608813166885412 2.145199521696487643396267
4.327536275770042628607825 0.02273579746653099989406321 2.145199521696487643396267
4.3395799532652716834491 -0.04039904339297623048210539 2.131462174677857479565546
4.330748330302048643147828 -0.04039904339297621660431759 2.139579953265272393991836
4.330748330302048643147828 0.0403990433929762443598932 2.139579953265272393991836
4.3395799532652716834491 0.0403990433929762443598932 2.131462174677857923654756
4.391635740348028171808892 -0.001924210520428041139642805 2.115735487725090457900023
4.39581787017401381945092 0.02304486316093378589497931 2.11892458597222432814533
4.39581787017401381945092 -0.02689328420178988335309533 2.11892458597222432814533
4.374709936322543235576177 -0.03282137533415195596031566 2.116407529307848367494671
4.386969420482271786454476 -0.04163574034802849932468405 2.119371574874029384716323
4.362225399481862275763433 -0.04118563498612345941118917 2.120774287561115301059544
4.362225399481862275763433 0.04118563498612348022787089 2.120774287561115301059544
4.374709936322543235576177 0.03282137533415198371589128 2.116407529307848367494671
4.386969420482271786454476 0.04163574034802850626357795 2.119371574874029384716323
4.379376256188299620930593 -0.007852301652790116132107912 2.112771442158909440678372
4.371298901854556717694322 0.008302407014695190740072306 2.112996494839861405523607
4.358814365013875757881578 0.0004311094918380506966007482 2.11736325309312833908848
4.354407182506937701305105 0.02495007781129484486504211 2.121504958665442863718908
4.354407182506937701305105 -0.02408785882761876190327754 2.121504958665442419629699
4.431863603280804753126176 -0.01206613516386506948507851 2.143929738444669830244038
4.425037193973397009472137 0.00912667505880813273444474 2.137859476889340193395128
4.431863603280804753126176 0.03031948528148132454562713 2.143929738444669830244038
4.418966932418067372623227 -0.03785947688933986171599955 2.134634299851122740676601
4.418966932418067372623227 0.03785947688933986865489345 2.134634299851122740676601
4.406070261555329992120278 0.01926859970224515175574176 2.125338861257575651109164
4.412140523110659628969188 -0.001924210520428042874366281 2.128564038295793103827691
4.406070261555329992120278 -0.02311702074310124921385778 2.125338861257575651109164
4.298555568437665286296578 0.03687156913283890641297447 2.188316000695173180190523
4.29711113687533163840726 -0.01666666666666666990481716 2.191991353004085318900707
4.298555568437665286296578 0.00353823579950557354223406 2.188316000695173180190523
4.294036750948011516015868 0.01051789481202693166128626 2.197111136875331549589419
4.292406796583025929692212 -0.0199265753966380125550284 2.198555568437665641567946
4.292406796583025929692212 0.04096236502069187240815396 2.198555568437665641567946
4.296108163806361623926477 -0.04711113687533161759057876 2.190988379935114860330714
4.293033777879041501535085 -0.04711113687533161759057876 2.196108163806361091019426
4.293033777879041501535085 0.04711113687533161065168485 2.196108163806361091019426
4.296108163806360735748058 0.04711113687533161759057876 2.190988379935114416241504
4.315905009385089030615745 -0.04371554586041729445478055 2.158069965681645108190878
4.308069965681644575283826 -0.04371554586041729445478055 2.169616848477065929046148
4.308069965681644575283826 0.04371554586041729445478055 2.169616848477065040867728
4.315905009385089030615745 0.04371554586041729445478055 2.158069965681645108190878
4.31881231447667879308483 -0.02804545845352920258042317 2.153142227069791303506463
4.314119497843026174166425 -0.0009965792597785814999067355 2.156284454139582251741558
4.31881231447667879308483 0.02605229993397204651950361 2.153142227069791303506463
4.306284454139582607012926 0.006427098924173963931383291 2.167831336935002628507618
4.303142227069791658777831 0.03347597811792459021607016 2.176235992660631612949373
4.303142227069790770599411 -0.02062178026957666235330358 2.176235992660631612949373
4.447464196841385941638691 -0.009801120265324024874442621 2.155968576359284849530695
4.448732098420692615547978 0.02099640990939561496775312 2.158133447980649322062163
4.448732098420692615547978 -0.0405986504400436543082975 2.158133447980649322062163
4.444962102616764276774575 -0.04746419684138629413450161 2.154700674779977731532199
4.444962102616763388596155 0.04746419684138629413450161 2.154700674779977731532199
4.443694201037456714686869 -0.01666666666666666990481716 2.152535803158613259000731
4.441192106812834161644332 0.006590871900194424960750528 2.151267901579306585091445
4.441192106812834161644332 0.03992420523352775002523529 2.151267901579306585091445
4.478787918084412567054642 -0.01589856759674419112160493 2.194686485681157872562608
4.472364230520470051999382 0.006807737098904529868259594 2.189372971362315567489532
4.478787918084412567054642 0.02951404179455325085812412 2.194686485681157872562608
4.467050716201628191015516 -0.03937297136231538569051125 2.18145259221516241154859
4.467050716201627302837096 0.03937297136231538569051125 2.18145259221516241154859
4.45531351431884203861955 0.01290518443032470652376276 2.168218698749166950534573
4.460627028637684787781836 -0.009801120265324017935548717 2.176139077896320106475514
4.45531351431884203861955 -0.03250742496097273892541324 2.168218698749166950534573
4.282568778260613662212108 0.002422193706169408974893109 2.219853415445554478679924
4.28060103440993344747767 -0.006357681407529708339509966 2.224243353002404166574024
4.275271417175350308070847 -0.004301553061636934766065465 2.23575552703950197752647
4.271909543791447383398463 -0.02339041343447301884994616 2.242877763519750988763235
4.271909543791447383398463 0.01478730731119914237892132 2.242877763519750988763235
4.28021247406608917884796 -0.02544654178036578895394371 2.223854792658559453855105
4.284260324619017623604122 -0.03969101474086304121025037 2.214310362472141857637098
4.274882856831506039441138 -0.0357555270395027505192509 2.23536696669565815298597
4.274882856831506039441138 0.03575552703950274358035699 2.23536696669565815298597
4.284648884962862780412252 0.0254465417803657820150498 2.214698922815986126266807
4.282292580768338297048103 0.03575552703950274358035699 2.218700300028991101441989
4.286616628813542106968271 -0.01666666666666666990481716 2.210308985259136882461917
4.288696735515791225168414 0.000208909552889968930461731 2.20515449262956808595959
4.288696735515791225168414 0.03354224288622330296671947 2.20515449262956808595959
4.496021497290564994386841 -0.006203577107722634681463703 2.209210047488905814816462
4.498010748645282497193421 0.02315125351617692422978578 2.212452340913661164023551
4.498010748645282497193421 -0.03555840773162219359271319 2.212452340913661164023551
4.493081283861401153956194 -0.04602149729056621840772578 2.207220796134189200188302
4.493081283861402042134614 0.04602149729056621840772578 2.207220796134189200188302
4.491092032506685427506454 -0.01666666666666666296592325 2.203978502709433850981213
4.488151819077520698897388 0.002829234389470764582386053 2.201989251354716792263844
4.488151819077520698897388 0.0361625677228040870447856 2.201989251354716792263844
4.526499019769458342921098 -0.01891260212292179138104942 2.245411621892380527043542
4.520132077046158158850631 0.005243974995172817621380545 2.240823243784761054087085
4.526499019769458342921098 0.02940055211326742662381051 2.245411621892380527043542
4.515543698938538241804963 -0.04082324378476127890724712 2.233976500005185883424019
4.515543698938538241804963 0.04082324378476127196835321 2.233976500005185883424019
4.504588378107619028867248 0.01795300001037197085151931 2.222541378117991683893706
4.509176756215238057734496 -0.006203577107722634681463703 2.229388121897566854556771
4.504588378107619028867248 -0.03036015422581724368389366 2.222541378117991683893706
4.249329503583924250165182 0.04283459538619020096072987 2.293505091802265472011868
4.248659007167849388508785 -0.01666666666666666990481716 2.29574680127702013265889
4.249329503583924250165182 0.009501262052856862885819034 2.293505091802265472011868
4.2472239654454906343517 0.01379658322194912342673057 2.298659007167849210873101
4.246459420139206741851012 -0.01819575727923360836113531 2.299329503583924960707918
4.246459420139207630029432 0.04578892372313185521459644 2.299329503583924960707918
4.248144283141811250459341 -0.04865900716784939128434218 2.295232077250981994609447
4.246709241419452496302256 -0.04865900716784940516212998 2.298144283141811516912867
4.246709241419452496302256 0.04865900716784939128434218 2.298144283141811516912867
4.248144283141811250459341 0.04865900716784940516212998 2.295232077250981550520237
4.264252888373066596727767 -0.04351198366135218542627427 2.258070331570552813360564
4.258070331570552369271354 -0.04351198366135218542627427 2.271824792346389898511916
4.258070331570552369271354 0.04351198366135218542627427 2.271824792346389898511916
4.264252888373066596727767 0.04351198366135217848738037 2.258070331570552813360564
4.265609121774353695855098 -0.03114687005632245722641649 2.253244008169323908674642
4.262670573141162932984116 -0.004301553061636934766065465 2.256488016338647817349283
4.265609121774353695855098 0.0225437639330485772859447 2.253244008169323908674642
4.256488016338647817349283 0.01084225488500746743814052 2.270242477114484902500635
4.253244008169323464585432 0.03768757187969298816376806 2.280752929720997634888136
4.253244008169323464585432 -0.01600306210967804981804008 2.280752929720998078977345
4.545532483887011920842269 -0.005126154444472092765183735 2.260237772224086061356729
4.547766241943506315692503 0.02373966277587218412503667 2.263774270278688938162759
4.547766241943506315692503 -0.03399197166481637832902152 2.263774270278688938162759
4.542054896107758032997026 -0.04553248388701094939712277 2.258004014167591666506496
4.542054896107758032997026 0.04553248388701094939712277 2.258004014167591666506496
4.539821138051263638146793 -0.01666666666666666990481716 2.254467516112988789700466
4.536343550272010638479969 0.0007764588821837677123927079 2.252233758056494394850233
4.536343550272010638479969 0.03410979221551710405258007 2.252233758056494394850233
4.57603349220136657038438 -0.01942170153103259938598413 2.295455193732399479245032
4.569833955502084599231694 0.004822019267099306519264168 2.290910387464798247947328
4.57603349220136657038438 0.02906574006523120895506551 2.295455193732399479245032
4.56528914923448425611241 -0.04091038746479856713644807 2.284558783176829699357313
4.56528914923448425611241 0.04091038746479856713644807 2.284558783176829699357313
4.55454480626760105366202 0.01911756635365981227270282 2.273662372621260363558804
4.559089612535201396781304 -0.005126154444472090163098521 2.280013976909229356238029
4.55454480626760105366202 -0.02936987524260399606834682 2.273662372621260807648014
4.241190686319772140677742 0.006012662314825788917316274 2.31482197599505301610634
4.237604839896005337607221 -0.01318435516235990159761293 2.324420484733645597685836
4.230615677946995667468855 -0.0007939687356594305476034656 2.339345995648158371693626
4.227212362421752800401009 -0.02347329771715188362346538 2.344672997824079008211129
4.227212362421752800401009 0.02188536024583302014301367 2.344672997824079008211129
4.236477242704099310799393 -0.03586368414385235348085246 2.323292887541739126788798
4.240369203157660749070601 -0.04651768849569323793780029 2.311953223050993599940739
4.229488080755089640661026 -0.03934599564815911831860973 2.338218398456252788975007
4.229488080755089640661026 0.03934599564815911831860973 2.338218398456252788975007
4.241496800349566775878429 0.03586368414385235348085246 2.313080820242899626748567
4.23678335673389394600008 0.03934599564815911831860973 2.321551731789585737431025
4.24508264677333446712737 -0.0166666666666666664353702 2.303482311504306601079861
4.245388760803129102328057 0.01031427171764235685424982 2.301741155752153211722089
4.245388760803129102328057 0.04364760505097570186805456 2.301741155752153211722089
4.595343133048435113607866 -0.002123799251305080043605855 2.311928300659245927306529
4.597671566524217823257459 0.02655266713046312149204553 2.316871300891144347389172
4.597671566524217823257459 -0.03080026563307328157925724 2.316871300891144347389172
4.591749242824434418253077 -0.04534313304843487490991549 2.309599867183463661746146
4.591749242824434418253077 0.04534313304843487490991549 2.309599867183463661746146
4.589420809348650820425064 -0.01666666666666666990481716 2.304656866951565241663502
4.585826919124650125070275 0.000165152315534172283934336 2.302328433475782976103119
4.585826919124650125070275 0.03349848564886750978963903 2.302328433475782976103119
4.617167940138798165605749 -0.02914840691579560078006139 2.346316347054593798304722
4.614109449487508562981475 -0.003182379473274547961036962 2.342632694109187951880813
4.617167940138799053784169 0.02278364796924650659271094 2.346316347054593798304722
4.610425796542101828379145 -0.04263269410918772012175637 2.336921114095607876492977
4.610425796542102716557565 0.04263269410918772012175637 2.336921114095608320582187
4.603683652945407267509381 0.02384222819121597364278031 2.327525881136622398770442
4.607367305890813113933291 -0.002123799251305076574158903 2.333237461150202030069067
4.603683652945406379330961 -0.02808982669382612679109812 2.327525881136622398770442
4.201113806242090298326275 -0.04852040412422342630094363 2.399634210366314412965494
4.201105587571571930993741 -0.01591865005826023637958144 2.399268420732629358838039
4.201113806242090298326275 0.01668310400770295007233379 2.399634210366314412965494
4.218305858017981968544063 -0.04120622775033785933906927 2.360369509052478331767588
4.210735298686163474712885 -0.04047464848296771638969105 2.376670386085459885094906
4.206712420865535762004583 -0.04926842073262985982617934 2.388940166627295802470599
4.210735298686163474712885 0.04047464848296770945079714 2.376670386085460329184116
4.206712420865534873826164 0.04926842073262985982617934 2.388940166627295802470599
4.218305858017981968544063 0.04120622775033785933906927 2.360369509052478331767588
4.220269584055838407721239 -0.02533352981933061770503102 2.354396886124830778896921
4.216730121215165993930896 -0.0007939687356594305476034656 2.358793772249661913065211
4.220269584055838407721239 0.02374559234801175769402626 2.354396886124830778896921
4.209159561883346611921297 0.01593508739929652001654503 2.375094649282643466392528
4.205128465392200531880462 -0.00787289441700452299888191 2.386998640190793885551557
4.632107927762531218718323 0.005553135983157023516931794 2.373445208220625879391719
4.632718815868633654986297 -0.004331359770952556906276065 2.378387456097680985322995
4.632312287220238467000399 0.003518302474162657983436375 2.388886469316490845926637
4.631294870465740842746527 -0.01870150017566103023414215 2.394443234658245600599003
4.631294870465740842746527 0.02573810512398634967046185 2.394443234658245600599003
4.629801230961742675162895 -0.02655116242077625032802501 2.375469871190790005499593
4.625433473233527159607092 -0.03766469310428588457284604 2.364359969865878596806397
4.629394702313348375355417 -0.03888646931649036159184263 2.385968884409599866103235
4.629394702313348375355417 0.03888646931649035465294872 2.385968884409599866103235
4.628351058140417251252074 0.02655116242077624338913111 2.367277554772768688451379
4.626044361339628707696647 0.03888646931649035465294872 2.369302217742933258648463
4.6277401700343148149841 -0.0166666666666666664353702 2.362335306895714026609312
4.623983300412201735696271 -0.01551768636898866356166327 2.356167653447856835668972
4.623983300412201735696271 0.01781564696434467104380062 2.356167653447856835668972
4.196103078186832036067244 0.01060231325842278526927487 2.414499235071589922085877
4.192206156373664782677224 -0.01666666666666666990481716 2.426404234816043725686541
4.196103078186832036067244 -0.02273102007491055454035944 2.414499235071589922085877
4.18617042812467854417946 0.004595210168693538918538444 2.442206156373665670855644
4.184031621688859559071716 -0.02094427953830542421531646 2.446103078186832924245664
4.184031621688859559071716 0.0301346998756925055218403 2.446103078186832924245664
4.191276167503912297718216 -0.04220615637366563477339554 2.425474245946291240727533
4.185240439254926059220452 -0.04220615637366562783450163 2.441276167503912741807426
4.185240439254925171042032 0.04220615637366562783450163 2.441276167503912741807426
4.191276167503911409539796 0.04220615637366562783450163 2.425474245946291240727533
4.200877486621118706011657 -0.0496361310012711359762605 2.400503478316915462187353
4.200503478316914396373249 -0.0496361310012711359762605 2.401368223425961012651442
4.200503478316914396373249 0.0496361310012711359762605 2.401368223425961012651442
4.200877486621118706011657 0.0496361310012711359762605 2.400503478316915462187353
4.200929951107769788620772 -0.04888811439286470245102478 2.400181934499364011514899
4.200737877302930911582735 -0.01591865005826023637958144 2.40036386899872855593685
4.200929951107769788620772 0.0170508142763442296918619 2.400181934499364011514899
4.200363868998728378301166 -0.01493717644857617959930352 2.401228614107774106400939
4.200181934499363833879215 0.01803228788602828647213983 2.401911424717454668353867
4.200181934499363833879215 -0.04790664078318064567074686 2.401911424717454668353867
4.630440039711277933065503 0.002944044242376243902814537 2.422504004531097709929099
4.629928053037421165072374 -0.003968017590090171936578756 2.425960035447331186730935
4.626794286459134930566961 -0.00229951556648210191785564 2.436277377575709390811198
4.624172506554705464054678 -0.02191022647552499230672041 2.443138688787854562178836
4.624172506554705464054678 0.01731119534256076938905089 2.443138688787854562178836
4.62867518183267812048598 -0.02357872849913306492752874 2.424707164242587698055331
4.62896231094857135701659 -0.03730135092342352909344783 2.414901808788066261968197
4.625541415254391885980567 -0.03627737757570953514019152 2.435024506370965902135595
4.625541415254390997802147 0.03627737757570954901797933 2.435024506370965902135595
4.630215182153314401602984 0.02357872849913310309144521 2.416154679992809306554591
4.628450324274713700845041 0.03627737757570954901797933 2.418357839704299294680823
4.630727168827171169596113 -0.01666666666666664908813544 2.412698649076576273841965
4.630502311269207638133594 -0.009180346602413793147268173 2.406349324538288314556667
4.630502311269207638133594 0.02415298673091953798874876 2.406349324538288314556667
4.175763436603306288930071 0.0004419276778643029370344242 2.474678491074557840079251
4.175713164060050885950659 -0.0005424727643745157288496239 2.475170691295677016796617
4.176382839646078259931983 0.001881823936429326358382719 2.483775261011197166283182
4.177102787775361036892718 -0.01522677040810166762541122 2.491887630505598583141591
4.177102787775361036892718 0.01899041828096034376094359 2.491887630505598583141591
4.176955476712745252143577 -0.01765106710890550906212226 2.476413003948370050721905
4.179032117958159098236592 -0.03387580609770782236189746 2.467858706776104416036333
4.177625152298771737946481 -0.03377526101119768253688846 2.48501757366389064429768
4.177625152298771737946481 0.03377526101119766172020675 2.48501757366389064429768
4.177789805305465620222094 0.01765106710890546048986494 2.466616394123411826200254
4.178981845414903695257181 0.03377526101119766172020675 2.468350906997224036842908
4.177840077848721023201506 -0.01666666666666669072149887 2.466124193902292205393678
4.179866446550880354493529 -0.01152898373359865537290947 2.458062096951146191514681
4.179866446550880354493529 0.02180434959973467923255441 2.458062096951146191514681
4.600368584077823896905102 -0.04950574412646129018877872 2.499874328204284790189149
4.600372799732484807577748 -0.01642375438455773162260698 2.499748656408569580378298
4.600368584077824785083521 0.01665823535734581306577695 2.499874328204285234278359
4.617076470192342796394769 -0.04143190829295534394205447 2.45989289464225091563776
4.610018566437966036630769 -0.04118056470152554882080409 2.476433889513202313281681
4.605855976725497846757662 -0.04974865640857021459320109 2.488816510326346875814352
4.610018566437966036630769 0.04118056470152555575969799 2.476433889513202757370891
4.605855976725497846757662 0.04974865640857022153209499 2.488816510326346875814352
4.617076470192342796394769 0.04143190829295533006426666 2.45989289464225091563776
4.618651196953706516978855 -0.0270647571927707976391364 2.454284045853522222557785
4.615751667257137036415315 -0.002299515566482134010239946 2.458568091707044711569097
4.618651196953706516978855 0.02246572605980654349644432 2.454284045853522222557785
4.608693763502760276651316 0.01641532307523687825301373 2.475109086577996553302228
4.604535389444952109272435 -0.008098574959621998928249731 2.487366035595425461934838
4.18198355496474682979624 0.006510233637502159387278056 2.524526678672754265164713
4.18337445271049990225265 -0.003728438145996160191231183 2.529646014564503886390412
4.1862433487609713722577 0.00946623024694014797431052 2.539843566970835020413233
4.18772134706569065798476 -0.01371067005722868305250817 2.544921783485417421388775
4.18772134706569065798476 0.03264313055110897726640573 2.544921783485417421388775
4.184055809400055281344066 -0.02690533845016499295277335 2.530327371254059265481828
4.181741604549519486511144 -0.03706177147932950000086549 2.518738921101975503091808
4.186924705450527639527536 -0.03984356697083549919691237 2.540524923660391287683069
4.186924705450527639527536 0.03984356697083549225801846 2.540524923660390843593859
4.181060247859964107419728 0.02690533845016498254443249 2.518057564412419679911181
4.183132502295272558967554 0.03984356697083549225801846 2.523858256993724680228297
4.179669350114210146784899 -0.01666666666666666990481716 2.512938228520670502774692
4.178746043009426536229967 -0.01105640458424116123747893 2.506469114260335029342741
4.178746043009426536229967 0.02227692874909217163326147 2.506469114260335029342741
4.595063840654509235150726 0.007185858056792835020509802 2.512122017402283802312013
4.590127681309017937394401 -0.01666666666666666990481716 2.523656769682904865703676
4.595063840654509235150726 -0.02614747527654050565648625 2.512122017402283802312013
4.58123463892704929634192 -0.001119418097269982929203858 2.540127681309017226851665
4.577277755890571953045765 -0.02458043273962063138271539 2.545063840654508524607991
4.577277755890571953045765 0.02234159654508066639166941 2.545063840654508524607991
4.58875651404765783070161 -0.04012768130901731705728608 2.522285602421544759010885
4.579863471665689189649129 -0.04012768130901731705728608 2.538756514047657120158874
4.579863471665689189649129 0.04012768130901731011839217 2.538756514047657120158874
4.58875651404765783070161 0.04012768130901731705728608 2.522285602421544759010885
4.600280799953165633553454 -0.04988463790643678230640745 2.500159343812110357418987
4.600159343812110890326039 -0.04988463790643678230640745 2.500355098852664603725771
4.600159343812110890326039 0.04988463790643678230640745 2.500355098852664603725771
4.600280799953165633553454 0.04988463790643678230640745 2.500159343812110357418987
4.600300593328890741418036 -0.04964172562432785096309118 2.500057681046781610234575
4.600236818234617608425197 -0.01642375438455773856150088 2.50011536209356322046915
4.600300593328890741418036 0.01679421685521237037064246 2.500057681046781610234575
4.600115362093562865197782 -0.01627515658555781299932086 2.500311117134117466775933
4.600057681046782143141627 0.01694281465421229940226944 2.500449191127890102848141
4.600057681046782143141627 -0.04949312782532792887035811 2.500449191127890102848141
4.196168302911065239868549 -0.003321807052595460944127703 2.56050412689597095550198
4.198084151455532264662907 0.02617982919180256509705806 2.565260708158538349721312
4.198084151455532264662907 -0.03282344329699349305684564 2.565260708158538349721312
4.194483933245668261236005 -0.04616830291106469724704553 2.558588278351503042529203
4.194483933245669149414425 0.04616830291106469724704553 2.558588278351503042529203
4.192568084701201236441648 -0.0166666666666666664353702 2.553831697088935204220661
4.190883715035806034165944 0.005634533158004839843713274 2.551915848544467735337093
4.190883715035806034165944 0.03896786649133817531653889 2.551915848544467735337093
4.213583549139828576812761 -0.03380964854695971133491383 2.597393197686789001465968
4.210701978039730342118219 -0.005689919840048239182972445 2.594786395373578358203304
4.213583549139828576812761 0.02242980886686323296896894 2.597393197686789001465968
4.208095175726519698855554 -0.04478639537357814726092897 2.587398960827157701203305
4.208095175726519698855554 0.04478639537357813338314116 2.587398960827157701203305
4.202606802313210820898348 0.0247979216543160081720476 2.577404723967526400940642
4.205213604626420575982593 -0.003321807052595463112532048 2.584792158513947057940641
4.202606802313209932719928 -0.03144153575950693613183518 2.577404723967526845029852
4.548972447474288749447169 0.04052300037665797216579477 2.591550552902369020102924
4.547944894948576788351602 -0.0166666666666666664353702 2.594233947662617723040057
4.548972447474288749447169 0.007189667043324643631863058 2.591550552902369020102924
4.545518551687793618043543 0.01181398014510074735705647 2.597944894948577942983547
4.54411976095272240883105 -0.01946424813681033733070436 2.598972447474289015900695
4.54411976095272240883105 0.04309220842701183551426425 2.598972447474289015900695
4.547085753359379367566362 -0.0479448949485777459189606 2.593374806073419414076398
4.544659410098596197258303 -0.0479448949485777459189606 2.597085753359379189930678
4.544659410098596197258303 0.04794489494857775979674841 2.597085753359379634019888
4.547085753359379367566362 0.04794489494857775979674841 2.593374806073419414076398
4.567299275282929116315245 -0.04217883837307438016361871 2.559525650998231149912954
4.559525650998230261734534 -0.04217883837307438016361871 2.572481370378937981513445
4.559525650998230261734534 0.04217883837307438016361871 2.572481370378937981513445
4.567299275282929116315245 0.04217883837307438016361871 2.559525650998231149912954
4.569457829382859159750296 -0.02663158980367769795849497 2.553910580813462338767295
4.565594785911623709750984 -0.001119418097269982929203858 2.557821161626925299259483
4.569457829382859159750296 0.02439275360913772949800205 2.553910580813462338767295
4.557821161626924855170273 0.009244772094746885743310472 2.570776881007632130859974
4.553910580813462338767295 0.03475694380115459947155898 2.579822019574876001968278
4.553910580813462338767295 -0.01626739961166082451549109 2.579822019574876001968278
4.234854476729336347773369 0.012422861363168793968903 2.627568384633832909713647
4.239244384387044206619066 -0.003643046047751921819035648 2.635601338339292887269494
4.244609727896374806732638 0.01437373306641225208235557 2.64575619469650202830735
4.245585163747996659822093 -0.01471579496342321005664111 2.647878097348251191789359
4.245585163747996659822093 0.04346326109624771422135225 2.647878097348251191789359
4.238651000034384885850614 -0.03273257407758738135594712 2.635007953986633566501041
4.229594609432776763924267 -0.03697637938108525729186127 2.620463189971715678439068
4.244016343543714597785765 -0.04575619469650213377853731 2.645162810343842707538897
4.244016343543714597785765 0.04575619469650214071743122 2.645162810343842707538897
4.230187993785436084692719 0.03273257407758738135594712 2.621056574324374999207521
4.233984517090484622769964 0.04575619469650213377853731 2.628496143677175655994915
4.225798086127728225847022 -0.0166666666666666664353702 2.613023620618915021651674
4.221131603183827962766372 -0.01871354045896298640139221 2.606511810309457111145548
4.221131603183827962766372 0.01461979287437034820407167 2.606511810309457111145548
4.529561134759390483850439 0.0009265403234794133968676988 2.621365405564088923995314
4.527975472622305375125507 -0.004097864597650813928142455 2.62387760802465397347305
4.519976198713532511419544 -0.01190068321989559176066198 2.634259873656812356301771
4.513562586941844756438513 -0.02949389021004167332762336 2.642129936828406133741964
4.513562586941844756438513 0.005692523770250490673661137 2.642129936828406133741964
4.527753522683711118190786 -0.02169107158779689376038036 2.62365565808605971653833
4.53319724259452172532292 -0.03743119793098414332943591 2.614859054590986886523751
4.519754248774937366306403 -0.03425987365681275320650201 2.63403792371821854345626
4.519754248774937366306403 0.03425987365681274626760811 2.63403792371821854345626
4.533419192533115094079221 0.0216910715877968902909334 2.615081004529581143458472
4.531611580457435728419568 0.03425987365681274626760811 2.617371257051551936001488
4.535004854670200202804153 -0.0166666666666666664353702 2.612568802069016093980736
4.538862912443925701211356 -0.0007548219239151044996499751 2.606284401034507869354684
4.538862912443925701211356 0.03257851140941822598584565 2.606284401034508313443894
4.248987083919432805600991 -0.01323812525589307571849407 2.652727186785953428227458
4.249493541959716402800495 0.01908229199687398389140291 2.653934999451057041852664
4.249493541959716402800495 -0.04555854250866013532839105 2.653934999451057041852664
4.248347075159589536497151 -0.04898708391943372431054371 2.652220728745670275117163
4.248347075159589536497151 0.04898708391943373818833152 2.652220728745670275117163
4.247840617119305939297647 -0.01666666666666666990481716 2.651012916080566661491957
4.247200608359461782015387 0.01336081698584597361734172 2.650506458040283508381663