# geometry NO_DATA 392
#  x  y  z
4.388226531006996111727858 0.008048266887602318134242729 2.224130935770137984519579
4.394113265503497345321193 0.02960813122793171450752858 2.230601668050770314266629
4.394113265503497345321193 -0.01351159745272709211683093 2.230601668050770314266629
4.359203329086875911002608 -0.03915127924118652624763115 2.248354608328062553823656
4.357069752051344835308555 -0.009108729251728607881344324 2.246709216656124663558103
4.359203329086875911002608 0.02093382073772931395438945 2.248354608328062553823656
4.382523620292760213601468 -0.02395613071328295609618841 2.227630422619097494418838
4.392055086812569619780788 -0.03822653100699606454337953 2.232852689249375188751401
4.373389079794533174094795 -0.03243881636241148502808329 2.236764963117324533925512
4.370032848355145382868159 -0.04670921665612458306693355 2.246296429637134828283251
4.373389079794533174094795 0.03243881636241148502808329 2.236764963117324533925512
4.370032848355146271046578 0.04670921665612458306693355 2.246296429637134828283251
4.382523620292760213601468 0.02395613071328296997397622 2.227630422619097494418838
4.392055086812569619780788 0.03822653100699607842116734 2.232852689249375188751401
4.378695064487185817370118 -0.002396266372953545845114753 2.218908669139860290187016
4.375050332463877644784134 0.004893197673662743815703458 2.220157134790214925601504
4.36591579196565060527746 0.01337588332279125713508705 2.229291675288442409197387
4.360425983490731738356772 -0.00239626637295356015658343 2.237177750136314813289573
4.425854677225566469189744 0.001343913678397416766596706 2.225489236452830699164451
4.426435273871581088656058 -0.0001827203863676840069844159 2.226252553485212892780964
4.42175536057985674176507 -0.009177106197081154326244956 2.234677247011730205628055
4.416494850642116887229349 -0.02718768654214524099765882 2.242338623505864880769423
4.416494850642116887229349 0.008833474147982932345168905 2.242338623505864880769423
4.424967804286543682223964 -0.00311765955644190476125921 2.224785083900176374527291
4.416543110760025925287664 -0.01960160583674088949357461 2.228900577537161087349205
4.412750070407324365362456 -0.03467724701173075657623102 2.238029423616332724833455
4.416543110760025925287664 0.01960160583674089296302157 2.228900577537161087349205
4.412750070407324365362456 0.03467724701173074963733711 2.238029423616332724833455
4.424967804286543682223964 0.003117659556441903460216603 2.224785083900175486348871
4.424387207640529062757651 -0.00159102549167680368952249 2.224021766867793736821568
4.423500334701506275791871 0.0001827203863676834377782754 2.223317614315138968095198
4.41507564117499029521241 0.008048266887602309460625349 2.227433107952123680917111
4.407537820587494437063469 0.0263059590459457787181563 2.232252754141763162465395
4.407537820587494437063469 -0.01020942527074116500107603 2.232252754141763606554605
4.343791714089665134679308 -0.009469284511914720370295839 2.259806976987710935844689
4.34689585704483238970397 0.01765576291108356121739575 2.260301525109919218436971
4.34689585704483238970397 -0.03659433193491300195798743 2.260301525109919218436971
4.337451988290633053679812 -0.004677717768500101735984487 2.292129706059134353068885
4.330531435056615308099026 0.01291502768310175477961543 2.284259412118268883773453
4.337451988290633053679812 0.03050777313470361129521535 2.292129706059134353068885
4.337723895632319859316794 -0.02744653187885447154226171 2.277265514875987939547031
4.346217971193581774969061 -0.04379171408966493761472094 2.27269161484795834127226
4.332031665861685532092906 -0.01791422990745804993961698 2.282957744646621822681709
4.338649921931164499255829 -0.03425941211826852295097012 2.291451820207882850155556
4.332031665861685532092906 0.01791422990745805340906394 2.282957744646621378592499
4.338649921931164499255829 0.03425941211826852295097012 2.291451820207882850155556
4.337723895632319859316794 0.02744653187885447501170866 2.277265514875987939547031
4.346217971193581774969061 0.04379171408966493761472094 2.27269161484795834127226
4.335297638528403219027041 -0.0003214844558561945624293454 2.264380877015740090030249
4.329907705922309446577856 0.01045838075633161862176834 2.269449325165977970897302
4.324215476151676007532387 0.00092607878493519506755971 2.27514155493661185403198
4.323913178987135452757684 -0.0003214844558561916892935884 2.275765336557007856299606
4.358475917225073104077637 -0.04688167221488907798754298 2.254696948517604049300189
4.354696948517603694028821 -0.04688167221488907798754298 2.258295639594980031006344
4.354696948517603694028821 0.04688167221488907798754298 2.258295639594980031006344
4.358475917225073104077637 0.04688167221488907798754298 2.254696948517604049300189
4.359117101307493413742122 -0.03932373479995102810713448 2.251559163892555393005068
4.356897296492579840787585 -0.009108729251728607881344324 2.253118327785110786010137
4.359117101307493413742122 0.02110627629649380887499888 2.251559163892555393005068
4.353118327785111318917188 -0.009469284511914720370295839 2.256717018862486767716291
4.35155916389255637000133 0.02074572103630769812077084 2.258756546047307356417377
4.35155916389255548182291 -0.03968429006013713539191556 2.258756546047307356417377
4.43771708379634688412807 0.009553517702084655255356793 2.275393008388027826782718
4.443858541898173086792667 0.03060393483176573892201588 2.282361642470577045571645
4.443858541898173086792667 -0.01149689942759642494185535 2.282361642470577045571645
4.430936655466299001204789 -0.03771708379634775010202929 2.269251550286201624118121
4.430936655466299001204789 0.03771708379634775010202929 2.269251550286201624118121
4.424795197364472798540191 -0.0166666666666666664353702 2.262282916203652405329194
4.41801476903442491561691 -0.02146002240073340353032627 2.256141458101826202664597
4.41801476903442491561691 0.01187331093259992760569066 2.256141458101826202664597
4.47501787388712113369138 2.855625140410060039159075e-05 2.275010682364282388334686
4.475030354132113252774161 -3.59576142007573466667647e-06 2.275026758370694679456392
4.469992204154029202811671 -0.01007270419474821758487604 2.28336188958473762511403
4.4649415739309530337664 -0.02676792711281898717867733 2.291680944792368723739173
4.46494157393095392194482 0.006622518723322549406840043 2.291680944792368723739173
4.475000371380317254477177 -6.35612650115438342860591e-05 2.274996775618898681159408
4.466665240166274308819538 -0.01672663217025813220395491 2.279775332350650884905008
4.461644592694995026249671 -0.03336188958473743082500107 2.288124370310077981827135
4.466665240166273420641119 0.01672663217025813914284882 2.279775332350650884905008
4.461644592694993249892832 0.03336188958473743776389497 2.288124370310077981827135
4.475000371380318142655597 6.356126501154433572956387e-05 2.274996775618898681159408
4.474987891135326023572816 -3.140925218736749583966009e-05 2.274980699612486390037702
4.474970388628522144358612 3.595761420076240345345981e-06 2.274966792867102682862424
4.466635257414478310522554 0.009553517702084655255356793 2.279745349598854886608024
4.458317628707239244079119 0.02625159362093869644394495 2.284537813075991241618112
4.458317628707239244079119 -0.007144558216769378994337458 2.284537813075990797528902
4.320861306522753686465421 -0.02490525474257618970819195 2.345766561265329563923387
4.316780811363383207890365 -3.879887858364410035700437e-05 2.341533122530658594939723
4.320861306522754574643841 0.02482765698540890381140755 2.345766561265329119834178
4.336562002804615900686258 -0.03544023153029805806024655 2.321771155629731353542411
4.326004594364402322526075 -0.02697335406095726501041199 2.334204383561726992013519
4.327038644023592617315899 -0.04153312253065921666461691 2.343591165993542890788603
4.326004594364402322526075 0.02697335406095726501041199 2.334204383561726992013519
4.327038644023592617315899 0.04153312253065921666461691 2.343591165993542890788603
4.336562002804615900686258 0.03544023153029805806024655 2.321771155629731353542411
4.336861578584619181242488 -0.005858537180529634243175696 2.307279884234850975133213
4.329350615644586675045957 0.01291502768310175304489196 2.3145597684697016838129
4.336861578584619181242488 0.03168859254673313946559787 2.307279884234850975133213
4.318793207204372208707355 0.00819978919732587512025912 2.326992996401697766373218
4.315746761704192024922122 -0.002106898196964721720059188 2.332146340098843140253848
4.487414887580330358218816 0.009963682552564738503786401 2.325900287029285085083075
4.493707443790165179109408 0.03071190346622825265154866 2.332922905429065885130058
4.493707443790165179109408 -0.01078453836109877390925238 2.332922905429065885130058
4.480337758359457467349785 -0.03741488758033018058313246 2.319607730819450708281693
4.480337758359457467349785 0.03741488758033018058313246 2.319607730819450708281693
4.474045202149622646459193 -0.0166666666666666664353702 2.3125851124196694641455
4.466968072928749755590161 -0.02265781661441804151202462 2.306292556209835087344118
4.466968072928749755590161 0.01067551671891529482816274 2.306292556209835087344118
4.525177869659783524980412 0.0002808149112653262713217017 2.325102945251480868193994
4.525299546013340723504825 -3.746220415142384907881273e-05 2.325262083809189306293774
4.520138572723230829808472 -0.01028448437606976038904971 2.333614148244598673898054
4.514855923079562849409285 -0.02723196595400175640255824 2.341807074122299159313343
4.514855923079562849409285 0.006662997201862239093905771 2.341807074122299159313343
4.525010055096885253078653 -0.0006164440370621526721350847 2.324972592892733835867602
4.516657990661476773652794 -0.01724564849957739565144976 2.329973165271091772865475
4.511664831934264263679779 -0.03361414824459866418360221 2.338455582065248172796146
4.516657990661476773652794 0.01724564849957739218200281 2.329973165271091772865475
4.511664831934264263679779 0.03361414824459866418360221 2.338455582065248172796146
4.525010055096886141257073 0.0006164440370621442153581393 2.324972592892733835867602
4.52488837874332894273266 -0.0002981669216454025652870974 2.324813454335025397767822
4.524720564180430670830901 3.746220415141550072208459e-05 2.324683101976278365441431
4.516368499745021303226622 0.009963682552564738503786401 2.329683674354636302439303
4.508184249872510207524101 0.02692851614087680284237436 2.334814599091741715852777
4.508184249872510207524101 -0.007001151035747326702163296 2.334814599091741715852777
4.292724030008670865754539 0.02157239108713028888364427 2.378848361078457873674097
4.285448060017342797323181 -0.01666666666666663521034764 2.378510225552237233870301
4.292724030008670865754539 -0.01176094224620304398709614 2.378848361078457873674097
4.284246498422694671148747 0.01426354347737003938623168 2.385448060017344218408653
4.290320906819374613405671 -0.004517849873307707396496991 2.39272403000867228684001
4.290320906819374613405671 0.03304493682804776621964038 2.39272403000867228684001
4.29225932655197617293652 -0.03544806001734437939099109 2.38532149208687060948364
4.291057764957328046762086 -0.03544806001734437939099109 2.392259326551978038111201
4.291057764957328046762086 0.03544806001734441408546061 2.392259326551977594021992
4.29225932655197617293652 0.03544806001734441408546061 2.38532149208687016539443
4.320712089002946676430383 -0.04173076152849056197347011 2.362398155108905939414399
4.312398155108905228871663 -0.0417307615284905480956823 2.372126987310465562330819
4.312398155108905228871663 0.0417307615284905480956823 2.372126987310465562330819
4.320712089002946676430383 0.04173076152849056197347011 2.362398155108905939414399
4.32076248702383836075569 -0.02510289374040753501704515 2.354134619235754399824145
4.316583172365550780114063 -3.879887858364410035700437e-05 2.358269238471509154919659
4.32076248702383836075569 0.02502529598324024912026076 2.354134619235754399824145
4.308269238471508444376923 0.0027909977364525364630643 2.367998070673068777836079
4.30413461923575368928141 0.02785509259827642636331291 2.373592283638873645656986
4.30413461923575368928141 -0.02227309712537135083509909 2.373592283638873645656986
4.537265751157432802642688 0.01228140911009119665142642 2.377208286730946085185678
4.543632875578716756592712 0.03288049360085736755321406 2.385315200198041551971073
4.543632875578716756592712 -0.008317675380674963842020375 2.385315200198041551971073
4.530157300057348734867446 -0.03726575115743284427605175 2.370841162309662131235655
4.530157300057348734867446 0.03726575115743283039826395 2.370841162309662131235655
4.523790175636065669095842 -0.01666666666666667684371106 2.36273424884256666445026
4.51668172453598071314218 -0.0230187332186369275621729 2.356367124421283154589446
4.516681724535979824963761 0.01031460011469640877801446 2.356367124421283154589446
4.557159608782302306906331 -0.03643164712232446755812987 2.393591255904626180495143
4.563192920534213214978081 -0.0159158019797396577121873 2.387182511809252005718918
4.557159608782302306906331 0.004600043162845159072649182 2.393591255904626180495143
4.556784176438839040201856 -0.03718251180925147975075973 2.39139862712633810559737
4.556784176438838152023436 0.03718251180925147281186582 2.39139862712633810559737
4.556408744095374885318961 0.03279725425267601690570984 2.389205998348050474788806
4.562817488190749060095186 0.01228140911009120705976727 2.384989883030963930821144
4.556408744095374885318961 -0.008234436032493604520898778 2.389205998348050474788806
4.27962355931582827395232 -0.01436546391157078259026569 2.443989023227400192439518
4.273828244816813892725804 0.006945915876562666624316478 2.437978046454800207243352
4.27962355931582827395232 0.02825729566469608114442913 2.443989023227400192439518
4.288089978363471388433936 -0.03485663048948477865662809 2.422624873291454150603386
4.278635850064054224617394 -0.0228346769442848707143412 2.433280563185521216951201
4.282870456580410767344347 -0.03797804645480008789437676 2.442375545096930000710245
4.278635850064053336438974 0.02283467694428489153102291 2.433280563185521216951201
4.282870456580410767344347 0.03797804645480010871105847 2.442375545096930000710245
4.288089978363471388433936 0.03485663048948477171773419 2.422624873291454150603386
4.288501894899292565810356 -0.003926420345448099723240087 2.407571684755257734877887
4.280608474582533240493376 0.01426354347737000989593259 2.415143369510515558573616
4.288501894899292565810356 0.03245350730018811691302005 2.407571684755257734877887
4.271154346283115188498414 0.004644713121466781044488492 2.425799059404582624921431
4.269593638300457349998851 -0.001523297156151417379790769 2.428883064543391867573519
4.547746647427388211326615 0.03100929648277080466489686 2.433262649055383697316302
4.545493294854775712110495 -0.01666666666666666296592325 2.438251295668773188651812
4.547746647427388211326615 -0.002324036850562528205843549 2.433262649055383697316302
4.540993238649372543136451 0.007666554255861081357270592 2.445493294854775179203443
4.538746535016582761556947 -0.0211600739322471975700779 2.447746647427387678419564
4.538746535016581873378527 0.03649318244396935334572518 2.447746647427387678419564
4.543237325032642104361003 -0.04549329485477493495437784 2.43599532584664002499153
4.538737268827238935386958 -0.04549329485477494189327174 2.443237325032642015543161
4.538737268827238935386958 0.04549329485477494189327174 2.443237325032642015543161
4.543237325032642104361003 0.04549329485477494189327174 2.43599532584664002499153
4.575098193535517054897355 5.222134056837693968748659e-05 2.424954027805052536592711
4.575088262773185476817162 -7.208286523201012192460513e-05 2.425016179907952817984551
4.573410722019905172430754 -0.003282998641327324225447359 2.426693720661232678281749
4.571743112028958222481378 5.222134056837227761814491e-05 2.428309109311611813097898
4.567002182350719863279664 -0.01679097087246702452167924 2.416930099485487648536264
4.559018170690565696645535 -0.03340541619856535887622684 2.40857065548186977110845
4.565051278016287739092149 -0.02000188664856234269096014 2.427758944138279861846286
4.558632807584770851860867 -0.03338555467390165454322215 2.41805747506543511349264
4.565324641597440447071676 0.02000188664856238432432356 2.418607640238767508833462
4.556965197593823013733072 0.0366163319746607013316364 2.419672863715814692397998
4.567104251113030422004613 0.01679097087246707309393656 2.416656735904335384645947
4.559008239928234118565342 0.03338555467390168229879777 2.408632807584770496589499
4.567114181875362888263226 -0.01666666666666663867979459 2.416594583801434659164897
4.559120239452877143548903 -0.03251038578117425997815459 2.408297291900717951307342
4.559120239452877143548903 0.0008229475521590682305164699 2.408297291900717951307342
4.556691834012670305753545 0.02213233360265656757270847 2.428824167615326601321613
4.563383668025339900964354 0.002182668294662552192081373 2.429374332788658996662434
4.556691834012670305753545 -0.01776699701333148140314222 2.428824167615326601321613
4.276483476614380663249904 -0.01820860992720117060850171 2.494692086541582032310771
4.27120360849481706111419 0.004508896489296469745067242 2.489384173083164064621542
4.276483476614380663249904 0.02722640290579408234306058 2.494692086541582032310771
4.279525337081134139793903 -0.03817063819368252813868381 2.467719045809520395096115
4.27302695926793862923887 -0.02755481127684680786593674 2.479077799017769478950868
4.277700059942761257048005 -0.03938417308316428250281049 2.489829784781277144389833
4.27302695926793862923887 0.02755481127684686684653492 2.479077799017769478950868
4.277700059942760368869585 0.03938417308316430331949221 2.489829784781277144389833
4.279525337081134139793903 0.03817063819368256283315333 2.467719045809520395096115
4.279527263446387230771961 -0.01455805565045322283457274 2.455914680903158675562281
4.273635653077931806365086 0.006945915876562668359039954 2.461829361806317173488878
4.279527263446387230771961 0.02844988740357852832763008 2.455914680903158675562281
4.267137275264735407631633 0.006050839749831006010583057 2.473188115014566257343631
4.266530507819994433305055 -0.004837304860349167512367785 2.478632187319656399182577
4.538013684372128153654558 0.001745583833028125199729463 2.463731899460899654741297
4.532816030060835998938273 -0.01214089245561451174681977 2.470675137605220950121065
4.520095245338081824115761 -0.01330067698989137806031557 2.485078917166361200941083
4.512572114926621580366373 -0.03171292748958617901955392 2.492539458583180156381331
4.512572114926623356723212 0.005111573509803415960028872 2.492539458583180600470541
4.525367739123275612200814 -0.03055314295530930923661117 2.463226846667661007472816
4.528328224334691398667019 -0.04547422578894785849534799 2.454020721417813799547503
4.512646954400523213735141 -0.03507891716636146739460855 2.477630626228801258292833
4.512646954400523213735141 0.03507891716636146739460855 2.477630626228801702382043
4.535776515272251785404478 0.03055314295530930923661117 2.461469012355373742195752
4.523130570023399243950735 0.03507891716636146739460855 2.460963959562134650838061
4.540974169583544828299182 -0.01666666666666666990481716 2.454525774211052446815984
4.538737000483668460049103 0.00314078004480892319927321 2.452262887105526090181229
4.538737000483668460049103 0.03647411337814225607001362 2.452262887105526090181229
4.286693259618589380011144 -0.006126967167131004872449029 2.54282022678571983931306
4.279116289630714220493246 0.01284681973764307399976659 2.535640453571440744440224
4.286693259618589380011144 0.03182060664241714159627961 2.54282022678571983931306
4.277614884506877324099605 -0.03917647412614098934025009 2.517027102928896198363873
4.274206876143175293236709 -0.02481692769758172059657575 2.526513996381283266856599
4.283551856408401192766178 -0.03564045357144074444022408 2.537768900111020187182476
4.274206876143175293236709 0.02481692769758175182159832 2.526513996381282822767389
4.283551856408401192766178 0.03564045357144073750133018 2.537768900111020187182476
4.277614884506877324099605 0.0391764741261410101569318 2.517027102928895754274663
4.27658732609289238268957 -0.01800091097017787744594131 2.505411762936929243039685
4.271411307451840499993523 0.004508896489296468010343766 2.510823525873858930168581
4.27658732609289238268957 0.02701870394877078918050017 2.505411762936929243039685
4.268003299088138469130627 0.002307120238107430651441909 2.520310419326245998661307
4.269771309365488320963777 -0.005843140792807649530615777 2.524385549841703824114347
4.497004092024901922286517 0.03161727578418862399933786 2.534613183759286236806929
4.494008184049803844573034 -0.01666666666666660051587812 2.537812729916995913015398
4.497004092024901922286517 -0.00171605754914471450925384 2.534613183759286236806929
4.488008805264649403454769 0.004667909096357801546073318 2.54400818404980366693735
4.485005334454593040049986 -0.02267360828677957365617779 2.547004092024901744650833
4.485005334454593040049986 0.03200942647949510388993843 2.547004092024901744650833
4.491014632382016813494374 -0.04400818404980397918757618 2.534819178249209326025948
4.485015253596861484197689 -0.04400818404980397224868227 2.54101463238201663585869
4.485015253596863260554528 0.04400818404980403469872741 2.5410146323820170799479
4.491014632382016813494374 0.04400818404980404163762131 2.534819178249209770115158
4.526689669642655289294453 0.0004756046695620938340176576 2.523785935026906290801207
4.526201538323499029559116 -0.001451867307874732783770644 2.524749671015624308267888
4.520563339877872621741517 -0.009824529583378708436081084 2.530387869461251160174697
4.515413272751402473659255 0.0004756046695621718965740765 2.535062331918159550525615
4.518187410054016694971324 -0.0185941386441034993415311 2.516735542746141973680096
4.511299269224289254509586 -0.03478520064120807497864973 2.508164407078027569042433
4.511992204209758661193064 -0.02696680091960747607804372 2.532287946326996053159064
4.509128143066745586509114 -0.03380893800289543754677979 2.519599355600604884131144
4.512549211608390287153725 0.02696680091960754893642971 2.522373741191768381497695
4.503978075940275438426852 0.04315786291671212110410139 2.524273818057513274482062
4.519313397493772477275797 0.01859413864410349587208415 2.516178535347510347719435
4.510811137905132994774249 0.03380893800289543060788588 2.509128143066745586509114
4.519801528812928737011134 -0.01666666666666666990481716 2.515214799358791442074335
4.512425256664045924992479 -0.02851547634868331626556426 2.507607399679395498992562
4.512425256664045924992479 0.004817856984650023544070052 2.507607399679395498992562
4.503421068541643812466191 0.03076695465109669652692403 2.534188023192740502054221
4.506842137083287624932382 0.004275758401051326859643176 2.536962408783904443509982
4.503421068541643812466191 -0.02221543784899412954381148 2.534188023192740502054221
4.291847061548857311663596 0.0122983183192401125671811 2.570451256770381220917443
4.283694123097714800962876 -0.01666666666666666990481716 2.572996220708477554950377
4.291847061548857311663596 -0.02103501501409322377300626 2.570451256770381220917443
4.275349044220343230904291 -2.349108807476295307384642e-05 2.575372535308420030020216
4.275156903794114171546425 0.0003607897643832180486524186 2.5752038859702652828787
4.281561250296403997595007 -0.01711256534026416031846196 2.566804507094250453747009
4.289937138084345846777978 -0.03369412309771656344192792 2.564482492492953014107115
4.275126094883544780600459 -0.0004693897616722538749384208 2.575149585971621135627174
4.275126094883544780600459 0.0004693897616722534412575518 2.575149585971621135627174
4.281561250296404885773427 0.01711256534026415684901501 2.566804507094250453747009
4.289937138084345846777978 0.03369412309771654956414011 2.564482492492953014107115
4.287804265283035043410109 -0.00390495583823787526314697 2.558290778878725468814537
4.281338300959605547291176 0.01284681973764306706087268 2.566581557757452003443177
4.287804265283035043410109 0.02959859531352401068593494 2.558290778878725468814537
4.274903145546746330296628 2.349108807476243807781449e-05 2.574926636634822685323343
4.274933954457315721242594 -8.510890921427287998841937e-05 2.574980936633466832574868
4.324081592508411731046181 -0.02117220251084724405576942 2.595253795019259346332774
4.319160103725316446343641 0.002668720861004537925342817 2.590507590038518603847706
4.324081592508411731046181 0.02650964423285632337590201 2.595253795019259346332774
4.314413898744575703858573 -0.04050759003851845535537635 2.58455589263002050159912
4.314413898744576592036992 0.04050759003851844841648244 2.58455589263002050159912
4.304746204980739676670964 0.01911178526004200795007648 2.573857990240782545043885
4.309492409961480419156032 -0.004729138111809774031035758 2.579809687649279759114052
4.304746204980739676670964 -0.0285700614836615629510419 2.573857990240782545043885
4.486239740534990083631328 0.00120385993845430303191002 2.564964119403463804758303
4.481522765221336079832781 -0.01063781056576293057580607 2.570884954655572318671375
4.468851607004726389504867 -0.01470450586745720468473397 2.584537193271787547388385
4.46089742410176981479708 -0.03257503247257809847470256 2.592268596635893818103114
4.4608974241017707029755 0.003166020737663688237872872 2.592268596635893818103114
4.47379995500481086878608 -0.02850833717088381916160422 2.563162144439047551713884
4.475531979583761810204123 -0.04397114389909626691599343 2.55422688113648721497384
4.461128796788200290279747 -0.03453719327178755849061531 2.576814383055261892252474
4.461128796788200290279747 0.03453719327178755849061531 2.576814383055261892252474
4.483254789800287909429244 0.02850833717088390242833107 2.561949691353012426020541
4.470815004270107806405576 0.03453719327178755849061531 2.560147716388595728886912
4.487971765113941913227791 -0.01666666666666658663809031 2.556028856100903468018259
4.484986814379238850847287 -0.001360947004545929543001259 2.553014428050451645191288
4.484986814379238850847287 0.03197238632878740549614349 2.553014428050451645191288
4.339460513616661962998933 -0.002872692019565956968174536 2.642333205636227866364152
4.331230448353988293774819 0.01512705258622375897870072 2.634666411272455821546146
4.339460513616661962998933 0.03312679719201347405821423 2.642333205636227866364152
4.327216804309546915874307 -0.03969918899735599276956677 2.617549110545710711051015
4.325215904909482489415495 -0.02436560026981237497833988 2.626548982848605717776991
4.335962359034605917429417 -0.03466641127245637804543676 2.638065244013950039203564
4.325215904909482489415495 0.02436560026981237150889292 2.626548982848605717776991
4.335962359034606805607837 0.03466641127245637804543676 2.638065244013950039203564
4.327216804309546915874307 0.03969918899735599276956677 2.617549110545710711051015
4.324485793028992830500101 -0.0203638014696847918783007 2.605150405501321930756831
4.319968504766479533429901 0.002668720861004537925342817 2.610300811002644216785029
4.324485793028992830500101 0.02570124319169386772898633 2.605150405501321930756831
4.31796760536641421879267 0.001333077939123050595707221 2.619300683305538335332585
4.320483994228863977582478 -0.006365855664022658164102886 2.623150150107111500119572
4.44256491319313084886744 0.004725306415135442812680555 2.612160393222004550750626
4.435129826386262408277616 -0.0166666666666666664353702 2.619927566400698015769422
4.44256491319313084886744 -0.02860802691819788745597464 2.612160393222004550750626
4.419978432599062756480635 -0.01363612090773072896277007 2.635129826386260809556461
4.412262125618733321630316 -0.03209928062732499143283604 2.642564913193130582413914
4.412262125618733321630316 0.004827038811863539578828064 2.642564913193130138324705
4.427698021996403277000809 -0.03512982638626093584433008 2.612495762010840216760243
4.412546628209204513382247 -0.03512982638626093584433008 2.627698021996402566458073
4.412546628209204513382247 0.03512982638626092890543617 2.627698021996402566458073
4.427698021996404165179229 0.03512982638626092890543617 2.612495762010840216760243
4.475286799553668259932238 7.411290636051371197041276e-05 2.624787313352692663670496
4.475198984456604023307591 -0.0002497431004874040667493307 2.624949241356116402812404
4.474883341837283090569599 -0.0003815421381547389649904756 2.625264883975437335550396
4.474655514315026394456254 7.411290636051245158538725e-05 2.625418598591334529146479
4.467129152581957640677501 -0.0169905226735145853389497 2.616879409481469132003895
4.459739843195048791812951 -0.03358307643382073270910126 2.608509019694955188839458
4.466512952050769591494372 -0.01712232171118191481617998 2.618358900870028094232111
4.458670947698380793156048 -0.03340744623969384152761819 2.610135354379483185738309
4.46681350996263581976109 0.01712232171118191828562694 2.617195052100790064741886
4.458443120176123208864283 0.03371487547148806912522545 2.610289068995380379334392
4.467809675069695174443041 0.0169905226735145853389497 2.616578851569602903737177
4.459652028097985443366724 0.03340744623969384152761819 2.608670947698379372070576
4.467897490166759411067687 -0.0166666666666666664353702 2.616416923566179164595269
4.460420365682786325578491 -0.03112142943363646607757289 2.608208461783089404661951
4.460420365682786325578491 0.002211903899696866793167516 2.608208461783089404661951
4.458142562264256980597565 0.003310355500362582165108094 2.611452917764618408824617
4.466285124528512007202607 -0.01373785330445882052474715 2.618512615485925287828195
4.458142562264255204240726 -0.03078606210928021974515545 2.611452917764618408824617
4.344503267761313125561173 -0.01436208785797310656662251 2.656649021643033847794868
4.347251633880657273323322 0.01347451323667287273466719 2.65505294492803711747797
4.347251633880656385144903 -0.04219868895261899566229147 2.65505294492803711747797
4.346481826840435047643041 -0.04450326776131264400193643 2.653900655523690144121929
4.346481826840435047643041 0.04450326776131256073520959 2.653900655523690144121929
4.343733460721091788059312 -0.016666666666666753171544 2.655496732238686874438827