# geometry NO_DATA 656
#  x  y  z
4.345011000351084007320424 0.02016889571125005109486494 2.025157895360164772569078
4.340022000702169258090635 -0.01666666666666668031315801 2.030095448206710173622014
4.345011000351084007320424 -0.01316443762208327657170503 2.025157895360164772569078
4.325934252076908848039238 -0.01150883058385509735699337 2.040022000702169879815528
4.316835503100563187217631 -0.03486416461935866462074074 2.045011000351084629045317
4.316835503100563187217631 0.01184650345164848031509486 2.045011000351084184956107
4.335234899733663382903615 -0.04002200070217024063801148 2.025308347238203410256574
4.321147151108402084673799 -0.04002200070217024757690538 2.035234899733663560539298
4.321147151108402084673799 0.04002200070217022676022367 2.035234899733663560539298
4.335234899733663382903615 0.04002200070217021982132977 2.025308347238203854345784
4.393989965481408077607739 0.01429789210803961499451908 2.020307926626631278566038
4.38797993096281579994411 -0.0166666666666666594964763 2.026138911535428466237363
4.393989965481408077607739 -0.01903544122529372134566827 2.020307926626631278566038
4.376508249450877130470872 -0.006276696357209611727701049 2.032784945808088217233944
4.371046602457530738661262 0.004646597629483451181997555 2.03359999517195122464841
4.382371436945200038337589 -0.03797993096281676583814146 2.020530417517811816452422
4.365851617302802800679729 -0.02758996065335972414089838 2.028868427831219456436429
4.365704770278533430882817 -0.03797993096281676583814146 2.022444884449740243326232
4.370899755433261368864351 0.02758996065335974148813314 2.027176451790471567449003
4.360243123285186150894788 0.03961002969054296107831448 2.023259933813603694829908
4.382371436945200038337589 0.03797993096281677971592927 2.020530417517811816452422
4.355194985154727582710166 0.01975692469962278541295575 2.024951909854350695638914
4.360389970309455520691699 -0.003186438324253503158456358 2.029683477195082463850895
4.355194985154728470888585 -0.02612980134812979693403889 2.024951909854350695638914
4.445109470139398055721358 0.02192327887150049420261766 2.026813808732102373255657
4.440218940278796821985452 -0.0166666666666666525575824 2.031071109575147914938498
4.445109470139398055721358 -0.01141005446183283866812275 2.026813808732102373255657
4.429826219462578151819798 -0.004118774965769667756321226 2.033944994428346753068126
4.42432402850696249174689 0.006885606945462752204178969 2.032561578438500493604124
4.436215972260471929189407 -0.04021894027879605038044986 2.027068141556823910320873
4.418050082656513666279352 -0.02767104857789906904863564 2.026994504861560741915127
4.419549305593805321734635 -0.04021894027879605038044986 2.024374952833083440850714
4.425823251444254147202173 0.02767104857789910027365821 2.029942026410023192539711
4.414047114638188773483307 0.0374521082991030318520842 2.022991536843236737297502
4.436215972260471929189407 0.04021894027879606425823766 2.027068141556824354410082
4.406273945850449180738906 0.01377006944432586713067401 2.020044015294774286672919
4.412547891700897118028024 -0.007015372188110479204081749 2.025611088871714038361915
4.406273945850449180738906 -0.02780081382054684982496617 2.020044015294774286672919
4.478692702373114897795858 -0.01625454740701796213508956 2.044947249780133091690004
4.471925476516356745548819 0.00697328548658286088285374 2.039894499560267249194112
4.478692702373114897795858 0.03020111838018368910496747 2.044947249780133091690004
4.466872726296490903052927 -0.03989449956026749205539872 2.035799419076485428092838
4.466872726296490014874507 0.03989449956026749205539872 2.035799419076485872182047
4.455052750219865131953156 0.02159883815297192199977871 2.026651588372838208584881
4.460105500439731862627468 -0.001628994740628903620249801 2.030746668856619585596945
4.455052750219866020131576 -0.02485682763422972924027832 2.026651588372838208584881
4.292412143684174452573643 0.002440552843955435830675116 2.060028409159780693471475
4.28482428736834819460455 -0.01666666666666668725205191 2.068632420106151670324834
4.292412143684174452573643 -0.03089278048937790094319311 2.060028409159780693471475
4.269578440925298146169098 -0.01382502621943316675756641 2.084824287368348016968866
4.261920450798073467524318 -0.03198264692111530554941012 2.092412143684173830848749
4.261920450798074355702738 0.004332594482248990248873799 2.092412143684173830848749
4.277402103340890882066105 -0.03482428736834882604389563 2.061210236078695245964809
4.262156256897841721809073 -0.03482428736834881910500172 2.077402103340891592608841
4.262156256897840833630653 0.03482428736834880522721392 2.077402103340891592608841
4.277402103340891770244525 0.03482428736834880522721392 2.061210236078695245964809
4.303793352912637537599494 -0.04787542636073822965858682 2.051214434871231340196118
4.301214434871232228374538 -0.04787542636073822965858682 2.051689234275701601006858
4.301214434871232228374538 0.04787542636073822271969291 2.051689234275701601006858
4.303793352912638425777914 0.04787542636073822271969291 2.051214434871231340196118
4.306220122902441715950772 -0.04271759027792663976352827 2.05106228681963020932244
4.30470349168066679368394 -0.01150883058385508694865251 2.052124573639261040369774
4.306220122902441715950772 0.01969992911021647280511715 2.05106228681963020932244
4.302124573639261484458984 -0.01571706785772671033374337 2.052599373043730857091305
4.30106228681963020932244 0.01549169183634484942002629 2.052011885628570286854711
4.30106228681963020932244 -0.04692582755179826314861913 2.052011885628569842765501
4.4941614621599086376591 -0.007408226742520254877455432 2.06046775780216417928159
4.49708073107995431882955 0.02008656875072182407260257 2.062177708844191936776724
4.49708073107995431882955 -0.03490302223576233209278996 2.062177708844191936776724
4.492234040489912594296129 -0.04416146215990873757917257 2.05754848888211849811114
4.492234040489912594296129 0.04416146215990874451806647 2.05754848888211849811114
4.489314771569866913125679 -0.0166666666666666664353702 2.055838537840091184705216
4.487387349899870869762708 0.001134747646491600456958304 2.052919268920045503534766
4.487387349899870869762708 0.03446808097982493462874132 2.052919268920045503534766
4.522226658556137479649806 -0.02329815825348602320588043 2.09552481680962365828691
4.517826104063633607665906 0.001084808699094970104240265 2.091049633619247671845187
4.522226658556137479649806 0.02546777565167596471540357 2.09552481680962365828691
4.513350920873255844867344 -0.04104963361924766213073568 2.083487370105030045408512
4.513350920873255844867344 0.04104963361924766906962958 2.083487370105030045408512
4.504475183190375986441722 0.01697474021006074168527178 2.071449923400436876619324
4.508950366380751972883445 -0.007408226742520254877455432 2.079012186914654058966789
4.504475183190375986441722 -0.03179119369510124970545917 2.071449923400436876619324
4.24440373468604903450796 0.01491756199380513125962722 2.120513827307755949647117
4.238807469372098069015919 -0.01666666666666666296592325 2.126862515682950593998157
4.24440373468604903450796 -0.01841577133952819814166624 2.120513827307755505557907
4.227607199246447677865035 -0.00573387358463260839169795 2.138807469372097092019658
4.222003194434749140384611 -0.02787467629006370323230257 2.144403734686048501600908
4.222003194434749140384611 0.01640692912079848297945972 2.144403734686048501600908
4.233225702617234631475185 -0.03880746937209775954125135 2.121280748928088044635842
4.22202543249158512850272 -0.03880746937209775954125135 2.133225702617234098568133
4.22202543249158512850272 0.03880746937209775954125135 2.133225702617234098568133
4.233225702617234631475185 0.03880746937209775954125135 2.121280748928088044635842
4.275800392323073850775472 0.000201538435439995415468864 2.124401146112365967866253
4.275551349988116811573491 -0.0006996231053540186064360062 2.124851726882762914527802
4.273895501574489941276624 -0.002612073721898507897704045 2.126507575296389340735459
4.272488695495820110181739 0.000201538435439991593656206 2.127712842939618376192357
4.267540137735872818325333 -0.01756782820746064649464202 2.116840514630518921279645
4.260526855408436119887483 -0.03403295643868736730652813 2.108406412079465219733265
4.265461399023436683819455 -0.01948027882400513860483571 2.122795185722856192711561
4.258856992849862521666182 -0.03353487176877326114698974 2.113578705827382719917296
4.265884289322245948028467 0.01948027882400519064653999 2.118496363044145347487301
4.257450186771192690571297 0.03594540705523188717229743 2.114783973470612199463403
4.268538067660680113135641 0.0175678282074607054752402 2.116417624331709212981423
4.260277813073479080685502 0.03353487176877329584145926 2.108856992849862610484024
4.268787109995636264159202 -0.01666666666666663521034764 2.115967043561312710409084
4.26152478533324341469779 -0.02979206978074573977655071 2.107983521780655955524253
4.26152478533324341469779 0.003541263552587589624742748 2.107983521780655955524253
4.257027296472383426362285 0.01205549967693926236012025 2.119082796149323044687662
4.26405459294476685272457 -0.007223240711625937560125266 2.124000453366085228168458
4.257027296472383426362285 -0.0265019811001911582970525 2.119082796149323044687662
4.540400731369970799278235 -0.0019109945493330643406793 2.142311725919302745069217
4.531732776806030926763924 0.01604579062260584956800535 2.134623451838605134867066
4.540400731369970799278235 0.03400257579454477041558391 2.142311725919302745069217
4.527725300295398547234527 -0.04063575076602236879619312 2.118849562612517001269907
4.526537836693215410832636 -0.02525920260462795330358432 2.127827955198486442611738
4.538211940720863424303388 -0.03462345183860558034405486 2.139812497248164468999221
4.526537836693215410832636 0.02525920260462795330358432 2.127827955198486442611738
4.538211940720863424303388 0.03462345183860558034405486 2.139812497248164468999221
4.527725300295397659056107 0.04063575076602236185729922 2.118849562612517445359117
4.522433599982749186096953 -0.02288427540026072987133787 2.104682124616988225795922
4.518239986916857908738621 0.001084808699094967718995486 2.109364249233977250952421
4.522433599982749186096953 0.02505389279845067485030796 2.104682124616988225795922
4.51705252331467477233673 0.001290118505272246172271844 2.118342641819946692294252
4.520058672778382913293171 -0.007302417432689041129623142 2.122638909788927108479584
4.230953183980762588589641 0.001133791577640091670711731 2.170180607596875699272232
4.228826935673610343258133 -0.005386288191943502251524123 2.173440647481667653551085
4.218813533268871651671361 -0.01464051661753571279001029 2.184467124910972390949837
4.210926379171283429059258 -0.03244097486184247675078396 2.192233562455485618158946
4.210926379171283429059258 0.003159941626771051170763371 2.192233562455485618158946
4.221083848372790825465017 -0.02318674643625026621229779 2.165697560180848135757969
4.217650015791654993790871 -0.03871962152527683859171148 2.156797331058695199601516
4.211070445968052133878246 -0.03446712491097343039614387 2.176724037610153317245931
4.211070445968052133878246 0.03446712491097343039614387 2.176724037610153317245931
4.225393103092475399762407 0.02318674643625025580395693 2.164540418359514717394632
4.215523767484503636637783 0.03446712491097342345724996 2.160057370943486709791159
4.227519351399626756915495 -0.01666666666666666990481716 2.161280378474722319026569
4.221959270511338679909841 -0.01701425205935577777971446 2.155640189237360893059758
4.221959270511338679909841 0.01631908127397755509102595 2.155640189237360893059758
4.548574704688622460935221 -0.01587310049219844976242655 2.151822078398613058425326
4.549287352344311585738978 0.01603493752975600553090096 2.151506213830157498989593
4.549287352344311585738978 -0.04778113851415290158630711 2.151506213830157498989593
4.548976914322281572822249 -0.04857470468862112866759162 2.151109430742923045443149
4.548976914322280684643829 0.04857470468862111478980381 2.151109430742923045443149
4.548264266666590671661652 -0.01666666666666666296592325 2.151425295311378604878882
4.548666476300249783548679 0.01462049531122697892948636 2.150712647655689480075125
4.548666476300249783548679 0.04795382864456030486133287 2.150712647655689480075125
4.589397301542993190537345 -0.003171154750821300778718115 2.192568456293813916602176
4.580845966330774565733464 0.01529909117014143817014915 2.185136912587628987836297
4.589397301542993190537345 0.03376933709110417625165468 2.192568456293813916602176
4.573414422624589192878375 -0.03513691258762940278215225 2.176298572714381762693847
4.573414422624589192878375 0.03513691258762939584325835 2.176298572714381762693847
4.557431543706185195219405 0.002597145428764285283312896 2.160028689134949164696309
4.564863087412370568074493 -0.01587310049219844976242655 2.168867029008196389838758
4.557431543706185195219405 -0.03434334641316118263976165 2.160028689134949608785519
4.195488784130718684650674 0.02169298687944099662816555 2.226204202748721883153848
4.190977568261436303487244 -0.01666666666666666990481716 2.231335277570439146188619
4.195488784130718684650674 -0.01164034645389233971202181 2.226204202748721883153848
4.18194321204524044333084 -0.001402045765727066156669522 2.24097756826143745811919
4.177420071698325187981027 -0.02571294736049823184687035 2.24548878413071850701499
4.177420071698325187981027 0.02290885582904409606408436 2.24548878413071850701499
4.186469717326422923520113 -0.04097756826143783559501799 2.226827426635424878043068
4.177435361110226175185289 -0.04097756826143783559501799 2.236469717326423634062849
4.17743536111022528700687 0.04097756826143782865612408 2.236469717326423634062849
4.186469717326422923520113 0.04097756826143783559501799 2.226827426635424878043068
4.225688525737844258856057 0.000242029331577420139375717 2.224553503593730940934847
4.225525784867603995564878 -0.000567511072056726072719568 2.224958273795548002738087
4.222874715522378252785529 -0.00473462761839455945067634 2.227609343140773745517436
4.220386387047392773297361 0.0002420293315774172120298513 2.229855642284182426493544
4.217510456688914999290319 -0.01747620707030080738908495 2.216942945616858562374318
4.210069183714358231895858 -0.03390084440539006122028454 2.208488597617736637346297
4.214420367523256771846718 -0.02164332361663864889855802 2.226179371117320116013616
4.208893367819553255060328 -0.03357536266491075588325188 2.215917743795221994673739
4.21485938734369014468939 0.02164332361663864195966411 2.219594014962084305153667
4.206405039344567775572159 0.03806796095172788885196979 2.218164042938630675649847
4.218084511893048116348837 0.01747620707030081432797886 2.216503925796426077710066
4.209906442844118856783098 0.03357536266491074894435798 2.208893367819554143238747
4.218247252763287491461597 -0.0166666666666666664353702 2.216099155594609015906826
4.210643238918491348954376 -0.03073967221214565087583637 2.208049577797304152682045
4.210643238918491348954376 0.002593661121187687632755337 2.208049577797304152682045
4.205966019524135290907907 0.01878337956973106376290517 2.224749399093866486509796
4.21193203904827129235855 -0.002617914715330164725226592 2.228425670260728796989724
4.205966019524135290907907 -0.02401920900039139494808182 2.224749399093866486509796
4.597073484355829187109066 -0.01528269042360108631584126 2.203618503765703451335867
4.598536742177914860008059 0.01512412726556118178211641 2.20284723406515059451749
4.598536742177914860008059 -0.04568950811276335788324587 2.20284723406515059451749
4.597852954429652250212257 -0.04707348435582893453332787 2.202155245943617778436874
4.597852954429652250212257 0.04707348435582892759443396 2.202155245943617778436874
4.596389696607566577313264 -0.01666666666666667337426411 2.20292651564417063525525
4.597169166681389640416455 0.01237257552597037166264293 2.201463257822084962356257
4.597169166681389640416455 0.04570590885930370800283029 2.201463257822084962356257
4.639579792263264224061459 -0.002999258944374562363410774 2.242579051207640006282418
4.630921319320171924971419 0.01549217680423863388594619 2.235158102415280012564835
4.639579792263264224061459 0.03398361255285183013530315 2.242579051207640006282418
4.623500370527811931253837 -0.03515810241527986268472716 2.226604372662505770819052
4.623500370527812819432256 0.03515810241527986268472716 2.226604372662505770819052
4.607420948792360526624634 0.003208745325012113402962655 2.210629694117371535355687
4.614841897584719632163797 -0.01528269042360108631584126 2.21918342387014577710147
4.607420948792359638446214 -0.03377412617221428603464517 2.210629694117371535355687
4.183319206094336273338286 0.001472833354733502986624871 2.268153627260396376641438
4.180264228063217402109331 -0.007582789416970736953715893 2.272681438646248608392852
4.169544366203135510318134 -0.01385693430319386368343437 2.284806166688066575432003
4.161879482374172489755892 -0.03199643432459403635803596 2.29240308334403319889816
4.161879482374172489755892 0.004282565718206306389082005 2.29240308334403319889816
4.172683470699149133054107 -0.02572228943837090789359401 2.265100681282179895248419
4.171246031138919008185439 -0.04091612275030406808973282 2.256030931271479467170593
4.16196360883906724126291 -0.0348061666880668391099718 2.277225409323998750465989
4.16196360883906724126291 0.0348061666880668391099718 2.277225409323998750465989
4.178826788502988165419083 0.02572228943837090442414706 2.263611688635548180315027
4.168191053107801025134904 0.0348061666880668391099718 2.260558742657331698922007
4.181881766534106148469618 -0.01666666666666666990481716 2.259083877249695948563613
4.177389348942758040550416 -0.01048592301542300431194121 2.254541938624847752237201
4.177389348942758040550416 0.0228474103179103354976931 2.254541938624847752237201
4.647706650731404209864195 -0.0154110120426845745994493 2.252921176580586326565481
4.648853325365701394389362 0.0156289720220531384853313 2.252402329258279767287831
4.648853325365701394389362 -0.0464509961074222946231238 2.252402329258279767287831
4.648266080434487079742212 -0.04770665073140437778542733 2.251774501946288697951104
4.648266080434487079742212 0.04770665073140437778542733 2.251774501946288697951104
4.647119405800189895217045 -0.0166666666666666664353702 2.252293349268595257228753
4.647678835503273653273482 0.01319882753564302103888028 2.251146674634297628614377
4.647678835503273653273482 0.04653216086897635217489722 2.251146674634297628614377
4.688753125474622862611795 -0.003871652214680970649496317 2.292624777689304949035431
4.680439396203354363024118 0.01471123649726113064017952 2.285249555378609187528127
4.688753125474622862611795 0.03329412520920325274653706 2.292624777689304949035431
4.673064173892659489695234 -0.0352495553786087850722808 2.276585938334628966828177
4.673064173892658601516814 0.03524955537860876425559908 2.276585938334628966828177
4.657375222310695228600252 0.003171876669257521486056106 2.260547098979952984620923
4.664750444621390990107557 -0.01541101204268459715085449 2.269210716023933205320873
4.657375222310695228600252 -0.03399390075462669497108337 2.260547098979952984620923
4.148954763602343831507824 0.0434760519107858789400467 2.344521288308440976067004
4.147909527204689084101119 -0.01666666666666666990481716 2.345692789557737523153946
4.148954763602343831507824 0.01014271857745254780402977 2.344521288308440976067004
4.145815298689537797827143 0.01247820963636444777100643 2.347909527204689705826013
4.144766306572042147138291 -0.01876465090165850557735183 2.348954763602344897321927
4.144766306572041258959871 0.04372107017438740805825859 2.348954763602344897321927
4.146858133723299033590592 -0.04790952720468963366151627 2.34464139607634791673263
4.144763905208147747316616 -0.04790952720468961978372846 2.346858133723300099404696
4.144763905208147747316616 0.04790952720468961978372846 2.346858133723300099404696
4.146858133723299033590592 0.04790952720468961978372846 2.34464139607634791673263
4.17638086207465963894947 0.0004575943921747114033135584 2.324076732317515769921101
4.176033626831459955042192 -0.001152064878572248325661054 2.324881561952889530431321
4.16845579213557648756705 -0.014003604513194269423626 2.332459396648772553817253
4.161225192682892703999187 0.0004575943921747126501460567 2.339232401709281816692965
4.168035037403589271320925 -0.01827632593741362887485025 2.316882972525017514442425
4.160877773055905670673837 -0.03448539821190557685959277 2.308320841995596950368963
4.159893661606155923493588 -0.03112786557203565257490041 2.338347195139066414526496
4.159125671630969023340185 -0.03379092772550804785192113 2.323575600650685135661888
4.160457202707705803845784 0.03112786557203564563600651 2.324460807220900981917566
4.151895072178285239772322 0.04733693784652759362074903 2.3303486057111943985376
4.168876362483776354395104 0.01827632593741362193595634 2.31631943142346807817944
4.160530537812705986766559 0.03379092772550804091302723 2.309125671630970266789973
4.169223597726976038302382 -0.01666666666666666990481716 2.31551460178809476175843
4.161719098136092753748017 -0.02937153609128828612995221 2.307757300894047070016768
4.161719098136090977391177 0.003961797242045042403979505 2.307757300894047070016768
4.151331531076735359420127 0.04290346255262384583817337 2.34423499362936027523574
4.152663062153472139925725 0.01223319137276291691807106 2.345120200199575677402208
4.151331531076735359420127 -0.01843707980709800853258429 2.34423499362936027523574
4.695278453226626069749727 -0.007529484289094449250834273 2.309290137962158873108365
4.697639226613312679603496 0.02108230227086566738181617 2.311497955764258538380318
4.697639226613312679603496 -0.03614127084905455894459081 2.311497955764258538380318
4.696661511528610333243705 -0.04527845322662678306802064 2.306929364575472707343806
4.696661511528610333243705 0.04527845322662678306802064 2.306929364575472707343806
4.694300738141923723389937 -0.01666666666666667337426411 2.304721546773373042071853
4.695683796443907098705495 0.009989689723887928279877357 2.302360773386686876307294
4.695683796443907098705495 0.04332302305722127155895862 2.302360773386686876307294
4.722763388832232678282708 -0.02268042616425267055113579 2.345443814996485798474168
4.718215971921387641430101 0.001540537162052527889871678 2.340887629992971952219705
4.722763388832232678282708 0.02576150048835772893296436 2.345443814996485798474168
4.713659786917872906997218 -0.04088762999297186617742028 2.333345739518605466145118
4.713659786917872906997218 0.04088762999297186617742028 2.333345739518605022055908
4.704556185003513135711728 0.01669147903721075743010971 2.321247664040724689726858
4.709112370007027870144611 -0.007529484289094446648749059 2.328789554515091175801444
4.704556185003513135711728 -0.03175044761539964899288435 2.321247664040724689726858
4.140489673735389786202177 0.001861688848792354342154276 2.361372015113400557595469
4.134141103504288317083137 -0.01455882931099514339401413 2.369582274193294146868993
4.120307227875334987743372 -0.01310892194691298980047112 2.385195022182124979792661
4.112821922477483127522646 -0.03163727746237201404744255 2.392597511091062223442805
4.112821922477483127522646 0.005419433568546035313862053 2.392597511091062223442805
4.126750906657026263246735 -0.03308718482645416764098556 2.362192077346031204854171
4.132059167050812220622902 -0.04789216264432847453003106 2.352927899588301841049542
4.11291703102807204572855 -0.03519502218212569588651206 2.377804825334862037777839
4.11291703102807204572855 0.03519502218212569588651206 2.377804825334862037777839
4.139449363898075162637724 0.03308718482645416070209166 2.360318096435564783064365
4.125710596819709863325443 0.03519502218212569588651206 2.361138158668195874412277
4.145797934129176631756764 -0.01666666666666666990481716 2.35210783735567119379084
4.144757624291861120013891 0.01037037228069292472965035 2.351053918677835863348946
4.144757624291861120013891 0.04370370561402625586566728 2.351053918677835863348946
4.727675547505435282857889 -0.01672695337687209182764292 2.394402500882307993634868
4.722234022429255162478512 0.00541138172107710844344064 2.388805001764615631998367
4.727675547505435282857889 0.02754971681902629310201291 2.394402500882307993634868
4.722863753510617712549902 -0.04071079444927221818728569 2.36376015159625829653578
4.719357650713949858811702 -0.02951579621388806390358539 2.374829319145232542354051
4.725752072132457293207608 -0.03880500176461585543075117 2.386851383036535434456482
4.719357650713949858811702 0.02951579621388810206750186 2.374829319145232542354051
4.725752072132457293207608 0.03880500176461586236964507 2.386851383036535434456482
4.722863753510616824371482 0.0407107944492722390039674 2.36376015159625785244657
4.722851806604082547380585 -0.0225035906205530225610012 2.354644602775363360080974
4.718392807465086491447437 0.001540537162052552176000342 2.359289205550727519522525
4.722851806604082547380585 0.02558466494465810175951148 2.354644602775363360080974
4.714886704668419525887657 0.005471668431282548580862901 2.370358373099702209430006
4.715839601010747728082606 -0.007377461115938871438757474 2.376782937873312739895937
4.126806571727970052165801 0.0006355007942483385362936188 2.423828929066278448090088
4.126379911459670424278556 -0.001488821330846133456776714 2.424891090128825865690487
4.117818628052590135268929 -0.01563374548331502092435308 2.433968834127581803983276
4.109684004913808585968127 -0.0329359129442300321843895 2.441984417063791212854085
4.109684004913807697789707 0.001668421977599985565193785 2.441984417063790768764875
4.11849654512488072555243 -0.01879098879176114081368532 2.417007723794035278785941
4.11162433375429969828474 -0.0348221546641794693632832 2.408356640063577636112768
4.109935261717799548364383 -0.03396883412758167769540663 2.426085467792791661167939
4.109935261717799548364383 0.03396883412758167075651272 2.426085467792791661167939
4.119507700089089397010866 0.01879098879176113734423836 2.416240006398368223017314
4.111197673486000958575914 0.03396883412758167075651272 2.409418801126125053713167
4.119934360357389024898112 -0.0166666666666666664353702 2.415177845335820805416915
4.112635488718510146100016 -0.028286767282733521478022 2.407588922667910580344142
4.112635488718510146100016 0.005046566050599809657994932 2.407588922667910580344142
4.715666882681991189940618 -0.03115766810874680617371446 2.446824550790739571937138
4.712596615154884815979131 -0.004175233193934067138508581 2.443649101581478966238592
4.715666882681991189940618 0.02280720172087865108001559 2.446824550790739571937138
4.727558167400651711886894 -0.03892047536749040914649811 2.416519143206780739774331
4.719694592416039391480354 -0.03256957694896978061649406 2.430010360664186741530557
4.720400546836151178808905 -0.04364910158147938812334132 2.441137265014598156653847
4.719694592416039391480354 0.03256957694896982224985749 2.430010360664186741530557
4.720400546836151178808905 0.04364910158147940200112913 2.441137265014598600743057
4.727558167400651711886894 0.03892047536749042302428592 2.416519143206780295685121
4.727617810703997669463661 -0.01684242697974664554338986 2.40553976231625465942443
4.722118548826379935690056 0.005411381721077109310802378 2.411079524632509407666703
4.727617810703997669463661 0.0276651904219008433483129 2.40553976231625465942443
4.714254973841768503461935 0.01031576824814608647762348 2.424570742089915853512139
4.711890660734773916828999 -0.005587142034157045050735135 2.432522197231067551115302
4.105154150130073453794921 -0.04019083903024547876903227 2.495344989160319659760034
4.10955959132455728166633 -0.01616752737627285413379852 2.490689978320639319520069
4.105154150130073453794921 0.007855784277699772236158715 2.495344989160319659760034
4.106725661524397885671078 -0.03845933793459737487507866 2.456209200932722769294969
4.110864211772402576627883 -0.0291493162552366597006781 2.468220856759709036509776
4.105343450384897785454541 -0.04068997832063929454005091 2.479117192393673896333439
4.110864211772402576627883 0.0291493162552366597006781 2.468220856759709036509776
4.105343450384897785454541 0.04068997832063929454005091 2.479117192393673896333439
4.106725661524397885671078 0.03845933793459736793618475 2.456209200932722769294969
4.106803252216051802747643 -0.03742641675124572242516763 2.455770331032701481177583
4.1120571226570783451848 -0.01563374548331502439380003 2.461540662065402784719481
4.106803252216051802747643 0.006158925784615675372291044 2.455770331032701481177583
4.116195672905083036141605 0.00735664498730595559777834 2.473552317892389496023497
4.115080352712061184661252 -0.005126004601264033330720871 2.479793642686674459696405
4.69415231677354416461867 0.02072410734735243703630303 2.476571790573807607671597
4.688304633547089039780076 -0.01666666666666668378260496 2.479514370447220894533302
4.69415231677354416461867 -0.01260922598598089583443738 2.476571790573807607671597
4.687164089200791750045028 0.01438557797407155613989005 2.488304633547089750322812
4.691871228080948696970154 -0.007252388906351270314587509 2.494152316773544431072196
4.691871228080948696970154 0.03602354485449441034994322 2.494152316773544875161406
4.693670022098189065218321 -0.03830463354708951023708252 2.484879758998321364060757
4.692529477751891775483273 -0.03830463354708951023708252 2.493670022098189775761057
4.692529477751890887304853 0.03830463354708948942040081 2.493670022098189775761057
4.693670022098189065218321 0.03830463354708949635929471 2.484879758998321364060757
4.715565709881837541672667 -0.04378096343770820908503083 2.459319993145472338369473
4.709319993145471450191053 -0.04378096343770819520724302 2.467196396712270534123945
4.709319993145471450191053 0.04378096343770819520724302 2.467196396712270534123945
4.715565709881837541672667 0.04378096343770819520724302 2.459319993145472782458683
4.715600951753877723149344 -0.03128952996497561672706311 2.453109518281145984275327
4.712464753298657882396583 -0.004175233193934086220466817 2.456219036562291790914969
4.715600951753877723149344 0.02293906357710744428612948 2.453109518281145984275327