/*--------------------------------*- C++ -*----------------------------------*\
| =========                 |                                                 |
| \\      /  F ield         | OpenFOAM: The Open Source CFD Toolbox           |
|  \\    /   O peration     | Version:  v2012                                 |
|   \\  /    A nd           | Website:  www.openfoam.com                      |
|    \\/     M anipulation  |                                                 |
\*---------------------------------------------------------------------------*/
FoamFile
{
    version     2.0;
    format      ascii;
    class       volScalarField;
    location    "2.5";
    object      alpha.water;
}
// * * * * * * * * * * * * * * * * * * * * * * * * * * * * * * * * * * * * * //

dimensions      [0 0 0 0 0 0 0];


internalField   nonuniform List<scalar> 
96000
(
0
0
0
0
0
0
0
0
0
0
0
0
0
0
0
0
0
0
0
0
0
0
0
0
0
0
0
0
0
0
0
0
0
0
0
0
0
0
0
0
0
0
0
0
0
0
0
0
0
0
0
0
0
0
0
0
0
0
0
0
0
0
0
0
0
0
0
0
0
0
0
0
0
0
0
0
0
0
0
0
0
0
0
0
0
0
0
0
0
0
0
0
0
0
0
0
0
0
0
0
0
0
0
0
0
0
0
0
0
0
0
0
0
0
0
0
0
0
0
0
0
0
0
0
0
0
0
0
0
0
0
0
0
0
0
0
0
0
0
0
0
0
0
0
0
0
0
0
0
0
0
0
0
0
0
0
0
0
0
0
0
0
0
0
0
0
0
0
0
0
0
0
0
0
0
0
0
0
0
0
0
0
0
0
0
0
0
0
0
0
0
0
0
0
0
0
0
0
0
0
0
0
0
0
0
0
0
0
0
0
0
0
0
0
0
0
0
0
0
0
0
0
0
0
0
0
0
0
0
0
0
0
0
0
0
0
0
0
0
0
0
0
0
0
0
0
0
0
0
0
0
0
0
0
0
0
0
0
0
0
0
0
0
0
0
0
0
0
0
0
0
0
0
0
0
0
0
0
0
0
0
0
0
0
0
0
0
0
0
0
0
0
0
0
0
0
0
0
0
0
0
0
0
0
0
0
0
0
0
0
0
0
0
0
0
0
0
0
0
0
0
0
0
0
0
0
0
0
0
0
0
0
0
0
0
0
0
0
0
0
0
0
0
0
0
0
0
0
0
0
0
0
0
0
0
0
0
0
0
0
0
0
0
0
0
0
0
0
0
0
0
0
0
0
0
0
0
0
0
0
0
0
0
0
0
0
0
0
0
0
0
0
0
0
0
0
0
0
0
0
0
0
0
0
0
0
0
0
0
0
0
0
0
0
0
0
0
0
0
0
0
0
0
0
0
0
0
0
0
0
0
0
0
0
0
0
0
0
0
0
0
0
0
0
0
0
0
0
0
0
0
0
0
0
0
0
0
0
0
0
0
0
0
0
0
0
0
0
0
0
0
0
0
0
0
0
0
0
0
0
0
0
0
0
0
0
0
0
0
0
0
0
0
0
0
0
0
0
0
0
0
0
0
0
0
0
0
0
0
0
0
0
0
0
0
0
0
0
0
0
0
0
0
0
0
0
0
0
0
0
0
0
0
0
0
0
0
0
0
0
0
0
0
0
0
0
0
0
0
0
0
0
0
0
0
0
0
0
0
0
0
0
0
0
0
0
0
0
0
0
0
0
0
0
0
0
0
0
0
0
0
0
0
0
0
0
0
0
0
0
0
0
0
0
0
0
0
0
0
0
0
0
0
0
0
0
0
0
0
0
0
0
0
0
0
0
0
0
0
0
0
0
0
0
0
0
0
0
0
0
0
0
0
0
0
0
0
0
0
0
0
0
0
0
0
0
0
0
0
0
0
0
0
0
0
0
0
0
0
0
0
0
0
0
0
0
0
0
0
0
0
0
0
0
0
0
0
0
0
0
0
0
0
0
0
0
0
0
0
0
0
0
0
0
0
0
0
0
0
0
0
0
0
0
0
0
0
0
0
0
0
0
0
0
0
0
0
0
0
0
0
0
0
0
0
0
0
0
0
0
0
0
0
0
0
0
0
0
0
0
0
0
0
0
0
0
0
0
0
0
0
0
0
0
0
0
0
0
0
0
0
0
0
0
0
0
0
0
0
0
0
0
0
0
0
0
0
0
0
0
0
0
0
0
0
0
0
0
0
0
0
0
0
0
0
0
0
0
0
0
0
0
0
0
0
0
0
0
0
0
0
0
0
0
0
0
0
0
0
0
0
0
0
0
0
0
0
0
0
0
0
0
0
0
0
0
0
0
0
0
0
0
0
0
0
0
0
0
0
0
0
0
0
0
0
0
0
0
0
0
0
0
0
0
0
0
0
0
0
0
0
0
0
0
0
0
0
0
0
0
0
0
0
0
0
0
0
0
0
0
0
0
0
0
0
0
0
0
0
0
0
0
0
0
0
0
0
0
0
0
0
0
0
0
0
0
0
0
0
0
0
0
0
0
0
0
0
0
0
0
0
0
0
0
0
0
0
0
0
0
0
0
0
0
0
0
0
0
0
0
0
0
0
0
0
0
0
0
0
0
0
0
0
0
0
0
0
0
0
0
0
0
0
0
0
0
0
0
0
0
0
0
0
0
0
0
0
0
0
0
0
0
0
0
0
0
0
0
0
0
0
0
0
0
0
0
0
0
0
0
0
0
0
0
0
0
0
0
0
0
0
0
0
0
0
0
0
0
0
0
0
0
0
0
0
0
0
0
0
0
0
0
0
0
0
0
0
0
0
0
0
0
0
0
0
0
0
0
0
0
0
0
0
0
0
0
0
0
0
0
0
0
0
0
0
0
0
0
0
0
0
0
0
0
0
0
0
0
0
0
0
0
0
0
0
0
0
0
0
0
0
0
0
0
0
0
0
0
0
0
0
0
0
0
0
0
0
0
0
0
0
0
0
0
0
0
0
0
0
0
0
0
0
0
0
0
0
0
0
0
0
0
0
0
0
0
0
0
0
0
0
0
0
0
0
0
0
0
0
0
0
0
0
0
0
0
0
0
0
0
0
0
0
0
0
0
0
0
0
0
0
0
0
0
0
0
0
0
0
0
0
0
0
0
0
0
0
0
0
0
0
0
0
0
0
0
0
0
0
0
0
0
0
0
0
0
0
0
0
0
0
0
0
0
0
0
0
0
0
0
0
0
0
0
0
0
0
0
0
0
0
0
0
0
0
0
0
0
0
0
0
0
0
0
0
0
0
0
0
0
0
0
0
0
0
0
0
0
0
0
0
0
0
0
0
0
0
0
0
0
0
0
0
0
0
0
0
0
0
0
0
0
0
0
0
0
0
0
0
0
0
0
0
0
0
0
0
0
0
0
0
0
0
0
0
0
0
0
0
0
0
0
0
0
0
0
0
0
0
0
0
0
0
0
0
0
0
0
0
0
0
0
0
0
0
0
0
0
0
0
0
0
0
0
0
0
0
0
0
0
0
0
0
0
0
0
0
0
0
0
0
0
0
0
0
0
0
0
0
0
0
0
0
0
0
0
0
0
0
0
0
0
0
0
0
0
0
0
0
0
0
0
0
0
0
0
0
0
0
0
0
0
0
0
0
0
0
0
0
0
0
0
0
0
0
0
0
0
0
0
0
0
0
0
0
0
0
0
0
0
0
0
0
0
0
0
0
0
0
0
0
0
0
0
0
0
0
0
0
0
0
0
0
0
0
0
0
0
0
0
0
0
0
0
0
0
0
0
0
0
0
0
0
0
0
0
0
0
0
0
0
0
0
0
0
0
0
0
0
0
0
0
0
0
0
0
0
0
0
0
0
0
0
0
0
0
0
0
0
0
0
0
0
0
0
0
0
0
0
0
0
0
0
0
0
0
0
0
0
0
0
0
0
0
0
0
0
0
0
0
0
0
0
0
0
0
0
0
0
0
0
0
0
0
0
0
0
0
0
0
0
0
0
0
0
0
0
0
0
0
0
0
0
0
0
0
0
0
0
0
0
0
0
0
0
0
0
0
0
0
0
0
0
0
0
0
0
0
0
0
0
0
0
0
0
0
0
0
0
0
0
0
0
0
0
0
0
0
0
0
0
0
0
0
0
0
0
0
0
0
0
0
0
0
0
0
0
0
0
0
0
0
0
0
0
0
0
0
0
0
0
0
0
0
0
0
0
0
0
0
0
0
0
0
0
0
0
0
0
0
0
0
0
0
0
0
0
0
0
0
0
0
0
0
0
0
0
0
0
0
0
0
0
0
0
0
0
0
0
0
0
0
0
0
0
0
0
0
0
0
0
0
0
0
0
0
0
0
0
0
0
0
0
0
0
0
0
0
0
0
0
0
0
0
0
0
0
0
0
0
0
0
0
0
0
0
0
0
0
0
0
0
0
0
0
0
0
0
0
0
0
0
0
0
0
0
0
0
0
0
0
0
0
0
0
0
0
0
0
0
0
0
0
0
0
0
0
0
0
0
0
0
0
0
0
0
0
0
0
0
0
0
0
0
0
0
0
0
0
0
0
0
0
0
0
0
0
0
0
0
0
0
0
0
0
0
0
0
0
0
0
0
0
0
0
0
0
0
0
0
0
0
0
0
0
0
0
0
0
0
0
0
0
0
0
0
0
0
0
0
0
0
0
0
0
0
0
0
0
0
0
0
0
0
0
0
0
0
0
0
0
0
0
0
0
0
0
0
0
0
0
0
0
0
0
0
0
0
0
0
0
0
0
0
0
0
0
0
0
0
0
0
0
0
0
0
0
0
0
0
0
0
0
0
0
0
0
0
0
0
0
0
0
0
0
0
0
0
0
0
0
0
0
0
0
0
0
0
0
0
0
0
0
0
0
0
0
0
0
0
0
0
0
0
0
0
0
0
0
0
0
0
0
0
0
0
0
0
0
0
0
0
0
0
0
0
0
0
0
0
0
0
0
0
0
0
0
-8.293393362244336399536558e-62
-7.662587322594731860680289e-50
-4.246486788952065348462808e-48
-1.174617630873453314746239e-46
-2.162296224536708277101375e-45
-2.980156054173018609777642e-44
-3.280176877299909446117839e-43
-3.003441704581134826475184e-42
-2.353096241273856962276094e-41
-1.610326256600757504382362e-40
-9.778707012273186810659173e-40
-5.33503888562959424340302e-39
-2.641479685464182539008664e-38
-3.099903973989489905426894e-38
-3.632967380644454222894939e-38
-4.251828930176794838642221e-38
-4.969120670581719132119061e-38
-5.799104543192606738414554e-38
-6.757838733363880154716621e-38
-7.863352567278082011677766e-38
-9.135828605855173319668216e-38
-1.059779010285731286807888e-37
-1.227429143726054915646464e-37
-1.419310849737107873518196e-37
-1.638492528535121880379529e-37
-1.88835122276885438474887e-37
-2.172589082461661793616354e-37
-2.49524783581758765844289e-37
-2.860720541768751507104278e-37
-3.27375980109993603197444e-37
-3.739481503428537214629746e-37
-4.263363090302342361773523e-37
-4.85123522397775927640357e-37
-5.509265671604400491254698e-37
-6.243934150838117719067611e-37
-7.061996841409633085954404e-37
-7.970439254607726279720959e-37
-8.976416176383459964184905e-37
-1.008717746758109626768517e-36
-1.130997862474654379781158e-36
-1.265197518490390092173803e-36
-1.412010030520482088112364e-36
-1.572092516999772361635302e-36
-1.746050227885162483109207e-36
-1.934419215250597045209157e-36
-2.137647456019108266204148e-36
-2.356074601827070408842339e-36
-2.589910602990718775420507e-36
-2.8392135316659085744747e-36
-3.103867011878197200227189e-36
-3.383557748876906363874597e-36
-3.677753734378432606476565e-36
-3.985683784250632300227016e-36
-4.306319137051833956196365e-36
-4.638357901077531809572873e-36
-4.980213179364713656353411e-36
-5.330005721420412767293157e-36
-5.685561942321851301855838e-36
-6.044418109613174010037596e-36
-6.403831422079054805481951e-36
-6.760798588957279082337204e-36
-7.112082361758871819767954e-36
-7.454246273585055176241148e-36
-7.783697604679037909159506e-36
-8.096738322242617362349428e-36
-8.389623444057088786026081e-36
-8.658625958467678744350847e-36
-8.900107109564607740151788e-36
-9.110590539773534363790147e-36
-9.286838488140646000017422e-36
-9.425927987955680324877856e-36
-9.525324808824861618712574e-36
-9.582952761896007275362053e-36
-1.83109150355337907661284e-35
-3.280635623928114315365095e-35
-5.537340635313538105662008e-35
-8.841054007047605553979661e-35
-1.339970275936293682978943e-34
-1.933800766014412482181373e-34
-2.664605198025016385330819e-34
-3.514034142671478733706423e-34
-4.444955580971886025311819e-34
-5.403301684531168578262598e-34
-6.323280471081822188543094e-34
-7.135235977290122147870559e-34
-7.774767067199336560927735e-34
-8.19137733868056682479314e-34
-8.355021825121591633504129e-34
-8.25940266657334544950057e-34
-7.921595384777475942264916e-34
-7.378353370936294468221102e-34
-6.680046571718971222528759e-34
-5.883514763126826415991809e-34
-5.045123239483822930098829e-34
-4.215052400570717328775529e-34
-3.433440696657953061873027e-34
-2.728555331717916990095248e-34
-2.116789134491880437883344e-34
-1.604035977491524314416046e-34
-1.187896631503010275527544e-34
-8.601912099487507491001188e-35
-6.093619088921755539610191e-35
-4.224944191679389849342729e-35
-2.868292936140300208174286e-35
-1.907502653781749103427344e-35
-1.24313880844826764975236e-35
-7.942416553587214651083376e-36
-4.976483468021373365455788e-36
-3.059008673681544991535575e-36
-1.845321193181620662159646e-36
-1.0927860777585248846465e-36
-6.354821631932023888340616e-37
-3.629981052708829893500062e-37
-2.037327523599282772782868e-37
-1.123804661447897345711748e-37
-6.094075107514127618540783e-38
-3.249533883835293129224436e-38
-1.704260368926786132639975e-38
-8.793342171351944675867544e-39
-4.464503116275575257798701e-39
-2.230940621032936169320616e-39
-1.097463283371661245076843e-39
-5.315785286807951001754801e-40
-2.535745962168795821572749e-40
-1.191482353497938821195886e-40
-5.515604279213939030462059e-41
-2.515936918371038826351223e-41
-1.131052384656352586575178e-41
-5.01204423935970999602504e-42
-2.189611054561933991805647e-42
-9.43208228607013730629943e-43
-4.006852267150209300337426e-43
-1.678877225688416848955897e-43
-6.93932592570787107858493e-44
-2.829824490731963388259875e-44
-1.138688735571651629039265e-44
-4.521803441263515123300279e-45
-1.772293873245375800827607e-45
-6.856965526172288201171559e-46
-2.619109792017264859957972e-46
-9.877633324100413107581369e-47
-3.678579696020035740982621e-47
-1.35295963785722167983547e-47
-4.914903587670238382105668e-48
-1.763670895873533428247172e-48
-6.252277031193939343404549e-49
-2.189886554271807514741492e-49
-7.578989443916015836767717e-50
-2.592088147886257076832058e-50
-8.761500663148645587753839e-51
-2.927103031892465494108632e-51
-9.666469077823157738332097e-52
-3.155779977163796217691745e-52
-1.018573376893393441060975e-52
-3.25058537330450749021201e-53
-1.025771307396948017333346e-53
-3.201064910494458499262703e-54
-9.879337899302144711561089e-55
-3.015673494743686388779496e-55
-9.105354707811946410853405e-56
-2.719554179611684174119048e-56
-8.035601287692717856467866e-57
-2.349036131133839089256026e-57
-6.79425485755436243444129e-58
-1.944483693693914480024519e-58
-5.506884829136664219897657e-59
-1.543388145350569990006496e-59
-4.280943170827411446689768e-60
-1.175238390025635970376122e-60
-3.193457739229847032814258e-61
-8.5895616958239340339652e-62
-2.287077279048481209251883e-62
-6.028586858507865791750034e-63
-1.573255893024084773959054e-63
-4.064959024009344367812468e-64
-1.039942269022336591841463e-64
-2.634397713617202135376981e-65
-6.608377050201146394932133e-66
-1.641615659357894320164109e-66
-4.038617500721070270663063e-67
-9.84009815364828634215895e-68
-2.374608741590390265519096e-68
-5.675846292342024329768267e-69
-1.343800164954495105624722e-69
-3.151544119166697849207546e-70
-7.321759158743177042442105e-71
-1.685113361034343776630951e-71
-3.842220743640207699935266e-72
-8.679455297844251606129783e-73
-1.942569879077259283438635e-73
-4.307760016103516382682599e-74
-9.465275760812368173567439e-75
-2.060809333237060832145092e-75
-4.446113865597816900800929e-76
-9.505536596666303313191758e-77
-2.013912764718217620223973e-77
-4.228505581579467120904057e-78
-8.798918315322096610595608e-79
-1.814601573012032704535284e-79
-3.708992898461094191180633e-80
-7.513912793041980215320316e-81
-1.508773473333179803854623e-81
-3.002904923558796708436506e-82
-5.924207814366940513075778e-83
-1.158513896272454682094059e-83
-2.245769380454933979353498e-84
-4.315511480022552984362809e-85
-8.220768999182778060485435e-86
-1.552440851991131353607881e-86
-2.906357826971817193344184e-87
-5.394149785159798114092889e-88
-9.925327443267996067663329e-89
-1.810598459282360825187631e-89
-3.274627827599627862328392e-90
-5.871793378255111636125646e-91
-1.043889603633553951230839e-91
-1.840004064359181764049093e-92
-3.21564588080893240891815e-93
-5.571948298707153806410372e-94
-9.572798521461471491514912e-95
-1.630671953871705636400768e-95
-2.754179640998213754829999e-96
-4.612297001939437195450106e-97
-7.658472232802908681273053e-98
-1.260859066613691014927613e-98
-2.058207605014640455168642e-99
-3.331253785233906814923423e-100
-5.345874289056864340012655e-101
-8.505847951176911116397979e-102
-1.341832788120159493267447e-102
-2.098716238782493725651534e-103
-3.254427765325941656517897e-104
-5.003229858962186907781979e-105
-7.625504331068536765817878e-106
-1.152163828752278458463955e-106
-1.725719911768468381094088e-107
-2.562223254804444807143427e-108
-3.770781446985941316795561e-109
-5.50031051763149553910574e-110
-7.95159620803112255776056e-111
-1.139194876121237897083952e-111
-1.617254971667107624719306e-112
-2.274835114736534829037973e-113
-3.170001862618979046014118e-114
-4.37568733676601506823754e-115
-5.981904983783899013314181e-116
-8.097610866404972224489803e-117
-1.085181046943176061475321e-117
-1.439335948864922579028934e-118
-1.888872914780280406494912e-119
-2.451680659324614567009689e-120
-3.145958739273732675100042e-121
-3.98874038112566661002079e-122
-4.993713895601529609059507e-123
-6.168172897872789061596164e-124
-7.508918534435540221662338e-125
-8.996941400328945446711454e-126
-1.059073088096118382019048e-126
-1.221809938569593233634138e-127
-1.37664721150807376071667e-128
-1.507168251779070592041384e-129
-1.59054308962066010729858e-130
-1.596170808481301114342417e-131
-1.484265444580493516671742e-132
-1.204451010095135126497927e-133
-6.944505327499139490717786e-135
1.210273206368409657875625e-136
1.331084106818161588062239e-136
3.03897791587893199680568e-137
5.361882308827489565348317e-138
8.429922661913364835258382e-139
1.238436749523646768216852e-139
1.737487673337277537500042e-140
2.355574547712855542446477e-141
3.108113055495833469283953e-142
4.009930660663667922196782e-143
5.074606631167258119230273e-144
6.313745203650714549208263e-145
7.736207902312956355080872e-146
9.347337785698052636636173e-147
1.114821404631006760634248e-147
1.313497934163834716241084e-148
1.529828395694398743993349e-149
1.762288996207747466172195e-150
2.008747465747343670605166e-151
2.26646657401978393041083e-152
2.532133092234004170718391e-153
2.801913260461686539340266e-154
3.071534428207028900957151e-155
3.3363910466725136810835e-156
3.59167170277534362854237e-157
3.832502501690327545509002e-158
4.054100929708158252717876e-159
4.251933455649549592201799e-160
4.421869631734543712448608e-161
4.560325383098394250189958e-162
4.664388548000396053326902e-163
4.731920534243433625091358e-164
4.761629144810969956667982e-165
4.753109121428743687263154e-166
4.706848659478732367588908e-167
4.624201946836407048298067e-168
4.50732955215631306948091e-169
4.359110117998883002241767e-170
4.183028197040131230125867e-171
3.983044122460117761801982e-172
3.763452470274894566723443e-173
3.528735925903980282546046e-174
3.283421214438340035405545e-175
3.031943227603051698106934e-176
2.778522638319648402242703e-177
2.527061212576300496388787e-178
2.281057795446270338542613e-179
2.043546654589122991552897e-180
1.817058597532502198551233e-181
1.60360411555027880302472e-182
1.404676809049172444814875e-183
1.221274561029007193043505e-184
1.053935370899132593323115e-185
9.027844462975017202506472e-187
7.675890640353875124395357e-188
6.478178274252531531256298e-189
5.427012303539498574302718e-190
4.512908467436704188045307e-191
3.725149536157253372047488e-192
3.052289243265383474083099e-193
2.482592575323478510716034e-194
2.00440605243054400375151e-195
1.60645605757277982112734e-196
1.278076981193930974455389e-197
1.009373855133181116408528e-198
7.913262407189599389536269e-200
6.158414494930926710817946e-201
4.757657942323116195004258e-202
3.648626028755169774062302e-203
2.777653029962205846762695e-204
2.099131262218261054963298e-205
1.574760100029017865131289e-206
1.172741940285626452004127e-207
8.669690799750073774680785e-209
6.362349421401131408844632e-210
4.634935071599835934082341e-211
3.351824838522991624371905e-212
2.406188318726955471065585e-213
1.714697426866914503347479e-214
1.212980268422391044912847e-215
8.517790305522464950060008e-217
5.937526591529308375520349e-218
4.108543549649131295226028e-219
2.822097780719452331839633e-220
1.924225796592372293379807e-221
1.302379785161943855185415e-222
8.750131418736933812392791e-224
5.835584315362777576899929e-225
3.86317469128456352992431e-226
2.538585593430105388755551e-227
1.655860842107625200741339e-228
1.072105137303957909594833e-229
6.890159083723020442410979e-231
4.395376977028728435050153e-232
2.783136808684376647283845e-233
1.749205885070352330585676e-234
1.091217995273651163435611e-235
6.756821638816134819241269e-237
4.152692117355290198247263e-238
2.533198476285054848973404e-239
1.533757285086135162236262e-240
9.216957642540598187442806e-242
5.497402576493894907517526e-243
3.254331729103178304607556e-244
1.912034076315582940946702e-245
1.114946508748322447767943e-246
6.452558759260702581049337e-248
3.706160645718175219166327e-249
2.112640104483670192549069e-250
1.195171824628734755496394e-251
6.710163878310668115518333e-253
3.738764713445013429633719e-254
2.067328597994335439111069e-255
1.13441318622926804678556e-256
6.177421987259189870997589e-258
3.338191614969940058088793e-259
1.790098163973671265155179e-260
9.52571301921279443627438e-262
5.029983177800311409978827e-263
2.635585803155266836644056e-264
1.370321371235484607841103e-265
7.069606885691200364869144e-267
3.618998807841071074981453e-268
1.838207754815271386843713e-269
9.264163747696295802887324e-271
4.632502688792431891679602e-272
2.298344762405063995090077e-273
0
0
0
0
0
0
-1.736391180099424459635494e-47
-9.65764507353308317176116e-46
-2.680916186182068870251851e-44
-4.952444243047939874953144e-43
-6.849047111918976924342594e-42
-7.563816344226325864782393e-41
-6.948294071801239681669778e-40
-5.461018520085537676781326e-39
-3.748690788712951694869462e-38
-2.283142325819447368849489e-37
-1.249183616041154793067895e-36
-6.201858435233833197201534e-36
-2.817224155605935608114604e-35
-1.179095637135178462226202e-34
-1.354156510804970472893227e-34
-1.552819479339040677272389e-34
-1.777842022302803927146653e-34
-2.032230560051319909822523e-34
-2.319250375288104386688535e-34
-2.642433550922577859446074e-34
-3.005584379659321403047678e-34
-3.412781640753834455597395e-34
-3.86837708136131238220795e-34
-4.376989386019738470686033e-34
-4.943492870560611307076068e-34
-5.573000099029710668795949e-34
-6.270837597300678931413213e-34
-7.042513828598275201676716e-34
-7.893678608037228776116985e-34
-8.830073169667351539343512e-34
-9.857470164661027920838318e-34
-1.098160296742913811154592e-33
-1.220808380166810544896631e-33
-1.354231037429694988287249e-33
-1.498936092498349642827987e-33
-1.655387786463431002438564e-33
-1.823994048879087260604796e-33
-2.005092761077929914142292e-33
-2.198937136232793890927482e-33
-2.405680385165297519460417e-33
-2.625359884374409874797574e-33
-2.857881112507991532268063e-33
-3.103001672271304949249613e-33
-3.360315765006754287524221e-33
-3.629239533041376297587021e-33
-3.908997728266240898138061e-33
-4.198612201919719074511831e-33
-4.496892737659060911650323e-33
-4.802430765067973471840766e-33
-5.113596491113672969888273e-33
-5.428539970189425988497182e-33
-5.745196596983454271973761e-33
-6.061297448619890246589665e-33
-6.374384822041153458272388e-33
-6.681833208889388258843401e-33
-6.980875823577817736211368e-33
-7.268636652238202672921205e-33
-7.542167823400669004967242e-33
-7.798491919450394886055135e-33
-8.034648656236257991211615e-33
-8.247745163005389816721218e-33
-8.435008903533479202491449e-33
-8.593842100202682544420064e-33
-8.721876364732111250244462e-33
-8.817026111360487193127056e-33
-8.877539239348350014357124e-33
-8.902043529777588485876164e-33
-8.889587213568323666136324e-33
-8.83967223836399620834722e-33
-8.752278894108948146875616e-33
-8.62788065066074032374365e-33
-8.467448312511490292399229e-33
-8.272442899298121349931064e-33
-8.044797006767612121466497e-33
-1.359531991540559387418573e-32
-2.172295161445181735282617e-32
-3.293401830531047789349769e-32
-4.752439966023989712886542e-32
-6.545246028398016901326275e-32
-8.62446673234344245234462e-32
-1.089642157784623152078829e-31
-1.322619444321276696730209e-31
-1.545106066899293095713998e-31
-1.74003181909635676534911e-31
-1.891794187781392038647691e-31
-1.988371328961042638075575e-31
-2.022880785886016742636159e-31
-1.994312157459481988447181e-31
-1.907348550230399063656467e-31
-1.771381904942630617389641e-31
-1.598973204512414884484556e-31
-1.404080685359803592078365e-31
-1.200372056835507864342523e-31
-9.998661510527892298238635e-32
-8.120437798132831126966669e-32
-6.43457566295794558574607e-32
-4.97780622980796989165744e-32
-3.761777924650875164978569e-32
-2.77863095822874162631609e-32
-2.00716763146014784342377e-32
-1.418639344453948155955179e-32
-9.815339875890682558234301e-33
-6.650935578435564905433602e-33
-4.415639794125322561227903e-33
-2.87354822451388606067592e-33
-1.833704485376146270211702e-33
-1.147863882241844175002838e-33
-7.051125031033073964741723e-34
-4.251902297550683052586637e-34
-2.517725033937983241571593e-34
-1.464436862651488647373697e-34
-8.369542261341873528940089e-35
-4.701401557976648501227903e-35
-2.596380131700516135073088e-35
-1.410068782993905098403525e-35
-7.53276756718428119599749e-36
-3.9592948113618871555644e-36
-2.048012971969182408060071e-36
-1.042792208569974584732798e-36
-5.227667154528218343583651e-37
-2.580800582709835651323869e-37
-1.254946572353717222018094e-37
-6.011806145720757164363532e-38
-2.837757295521469755848584e-38
-1.320124127133350108585108e-38
-6.053400950594095407093156e-39
-2.73654464468141746224603e-39
-1.219817383610775936287292e-39
-5.362220232861274424525713e-40
-2.324974051361386587104787e-40
-9.944412324459393559037163e-41
-4.196522285371476707034547e-41
-1.747467952725426865693705e-41
-7.181186102813404452893921e-42
-2.912772931593307486505361e-42
-1.166259162398864165653533e-42
-4.610142756560487939503048e-43
-1.799350912980866019779419e-43
-6.935046755290415620996366e-44
-2.6397534929740810315222e-44
-9.924414183063957154116459e-45
-3.685697567900386439120947e-45
-1.352235594363227441778221e-45
-4.901694553713772506160875e-46
-1.755672757348323491937217e-46
-6.214203698709889276102823e-47
-2.173762517464669862461129e-47
-7.515580173616037113128722e-48
-2.568472300496137233105801e-48
-8.677336769263661176174447e-49
-2.898234764445904604733581e-49
-9.570876517327582602322305e-50
-3.125183981758171410802936e-50
-1.009111336834086522543014e-50
-3.222369464516208975092629e-51
-1.017692875109637654917079e-51
-3.179032572817784394543253e-52
-9.822930476210747904964884e-53
-3.002516161396387234253829e-53
-9.079407912229872739696085e-54
-2.716355898912408304919044e-54
-8.040836941545867338275865e-55
-2.355207457760665255836417e-55
-6.826494197653116110651391e-56
-1.95809469207194277899933e-56
-5.558572627390019633294617e-57
-1.561752482145289594351833e-57
-4.343158061804214863153675e-58
-1.19555141627980199074926e-58
-3.25779887423817378845807e-59
-8.788148430962280346685919e-60
-2.346987903441719926566552e-60
-6.205652655596994727796485e-61
-1.624611650356712228384931e-61
-4.211327865095835634973186e-62
-1.080979373208982893630045e-62
-2.747676949013145213289616e-63
-6.916469641956268122585734e-64
-1.724225415485472805330092e-64
-4.257103314806253735564847e-65
-1.04103262062867987868549e-65
-2.521526373468655422530954e-66
-6.049651555561187137687844e-67
-1.437749203205489352194367e-67
-3.384852272214508308188521e-68
-7.894372569240108372751637e-69
-1.824038374146170510915114e-69
-4.175471699501159589588516e-70
-9.469973083820338385877094e-71
-2.128039152573074589444469e-71
-4.738204877802649931444182e-72
-1.04536205876741506121999e-72
-2.285352913096034808742286e-73
-4.950944651322618909037571e-74
-1.062882793903097219577668e-74
-2.261304724414942307759271e-75
-4.767851860134453089990934e-76
-9.962986682838449143773356e-77
-2.063347159011160913055588e-77
-4.23529318412064104539117e-78
-8.616584924456877401999172e-79
-1.737557216802348372076371e-79
-3.473015028807810644628492e-80
-6.880956268899483275866998e-81
-1.351375739539204392387296e-81
-2.630866630083268925328334e-82
-5.077229013505859943496297e-83
-9.713355580530579700827369e-84
-1.842194272448916980064409e-84
-3.46364793216892078042516e-85
-6.456131341189728781881252e-86
-1.193050847844568055623595e-86
-2.185751290392249625978537e-87
-3.970127507071653329856433e-88
-7.149510614284980162866704e-89
-1.276503551861850938519776e-89
-2.259678995517963371934414e-90
-3.966021483615377118784932e-91
-6.901618513158404665579461e-92
-1.190797070885712924610353e-92
-2.037127258401236532491248e-93
-3.455366502715499874067209e-94
-5.811213575851703794291052e-95
-9.690288519675234048785638e-96
-1.602150303179013540868012e-96
-2.626425422859407131901786e-97
-4.268936985490213222763663e-98
-6.879609097697528650537157e-99
-1.09923978033261108107432e-99
-1.741404989756626958005213e-100
-2.735132737526241187747618e-101
-4.259114869268516198001082e-102
-6.575245190687107436407252e-103
-1.006337450533163185788416e-103
-1.526861755137018617476136e-104
-2.296482550483436189116961e-105
-3.423846079055184436364746e-106
-5.059764129490613547630638e-107
-7.411142839190838005862948e-108
-1.075843303330048503323744e-108
-1.547702240160373802674033e-109
-2.206281306062308871407025e-110
-3.116190977524276179660542e-111
-4.360383468472752399748495e-112
-6.043692754568553418365354e-113
-8.296352639800762838651153e-114
-1.12771093665131114660044e-114
-1.517536072128774895297926e-115
-2.021152436680006399971109e-116
-2.663456423942045520960535e-117
-3.471528989583293954956432e-118
-4.473370048289510493594256e-119
-5.695829118578831615961914e-120
-7.161490346863939904589553e-121
-8.884241925582940804816681e-122
-1.086324219117884301011582e-122
-1.307499314706041180947815e-123
-1.546325332415948870528984e-124
-1.79265726063198278135197e-125
-2.030331848398427297028602e-126
-2.235419170369072995415303e-127
-2.374240305095074780496617e-128
-2.401190267135399976246041e-129
-2.25643155270846411018588e-130
-1.863553299136995147625571e-131
-1.127322724696564427265755e-132
6.831278352240476580203799e-135
1.861785395560968979727615e-134
4.414817251015933343181397e-135
7.912455797664251092257275e-136
1.25620060801232631905824e-136
1.859064544410822724019159e-137
2.624153788338505684322884e-138
3.576831703906936897338135e-139
4.742787903300696356391994e-140
6.147151759688382462931414e-141
7.813454119612394662250434e-142
9.76246299472648659111934e-143
1.201093121502364901055781e-143
1.457030577219089239745997e-144
1.74454589201789345995388e-145
2.063350904294215345509358e-146
2.412280390598793337870733e-147
2.789213937570014931414627e-148
3.191028244141429971287668e-149
3.613585813952073396681205e-150
4.051764585120467771720371e-151
4.499531192000464565322573e-152
4.950058350188178336062788e-153
5.395884426790891337045031e-154
5.829110755805391722498467e-155
6.241629853971886974616226e-156
6.625375560410069534947114e-157
6.972584428311104759201678e-158
7.276056578949969609348673e-159
7.529403789817292024950496e-160
7.727272884657112116783176e-161
7.865533524889837260547609e-162
7.941421215226250773956519e-163
7.953628625207795047985517e-164
7.902341043096194303823529e-165
7.789214737095271614673935e-166
7.617300002310112994637701e-167
7.390913520059908475827911e-168
7.115467164297359570911309e-169
6.797262402382434960657603e-170
6.443260839907851556612476e-171
6.060842185688963240177471e-172
5.657560949140327607309191e-173
5.240912563875764281852144e-174
4.818118438963237974441829e-175
4.395937788569786732307585e-176
3.980512121641853336624198e-177
3.577246136879345394827101e-178
3.190726614578423680427745e-179
2.824678863239442312169526e-180
2.481958480716889759540358e-181
2.16457471415368739878038e-182
1.873740605207585216877661e-183
1.609944409849109587849974e-184
1.373036477857786585169074e-185
1.162325832745914885769214e-186
9.766810550276103065960461e-188
8.146306741441755414450967e-189
6.744590441889049885883784e-190
5.542945430756266431925171e-191
4.521878264475437767362126e-192
3.66178728313092485341455e-193
2.943511840100741170686833e-194
2.348762248055481372696683e-195
1.860436376373852261671661e-196
1.462832908018068179513105e-197
1.141773997681351413037363e-198
8.846515787020101878333509e-200
6.804120116563679418650449e-201
5.194933536615268264152593e-202
3.937284668895323536151889e-203
2.962256845096402626153543e-204
2.212370000825992148190975e-205
1.640219024106957114338264e-206
1.207131696974324784388039e-207
8.818925886199683642613244e-209
6.395644054034013352398041e-210
4.604257221241887618175565e-211
3.290338235186340138454981e-212
2.334135094817799501136813e-213
1.643669699902254378885364e-214
1.148959452076800034248252e-215
7.972504325233210688979519e-217
5.491397630703356388642693e-218
3.754629535485784509543843e-219
2.548268679292712098074308e-220
1.716781271443253443255357e-221
1.148084617334511815050747e-222
7.621130847052965024371238e-224
5.021677181262391105307227e-225
3.284423391679202133577987e-226
2.13229571931919202282177e-227
1.374075276061295113428155e-228
8.789114203000502777704408e-230
5.580174034952938663212576e-231
3.516534315099829383991308e-232
2.199595102233093586406916e-233
1.36561271128901319923331e-234
8.415216597835369663997878e-236
5.146972802180706745187717e-237
3.124517964816795947801625e-238
1.882584051138558457735204e-239
1.125800419247732406645193e-240
6.68189230729011590351125e-242
3.936078876871105918831409e-243
2.301173995231195832607604e-244
1.33521567428407750742532e-245
7.68890526165101832999576e-247
4.394236352963235873997786e-248
2.492313611824817321912606e-249
1.402867862730653235936803e-250
7.836460285118406779208329e-252
4.344165487710470277259839e-253
2.389846818084055923494448e-254
1.304682810976083405711551e-255
7.068133533284767511071751e-257
3.799820682559983794265152e-258
2.027092172437194359718234e-259
1.073073026939732167767429e-260
5.636683634465977812193868e-262
2.937985961167501104513118e-263
1.51949887167690582163307e-264
7.797734657495151637142895e-266
3.970512648337565766265538e-267
2.005983182966462685924535e-268