/*--------------------------------*- C++ -*----------------------------------*\
| =========                 |                                                 |
| \\      /  F ield         | OpenFOAM: The Open Source CFD Toolbox           |
|  \\    /   O peration     | Version:  v2012                                 |
|   \\  /    A nd           | Website:  www.openfoam.com                      |
|    \\/     M anipulation  |                                                 |
\*---------------------------------------------------------------------------*/
FoamFile
{
    version     2.0;
    format      ascii;
    class       volScalarField;
    location    "2.5";
    object      p;
}
// * * * * * * * * * * * * * * * * * * * * * * * * * * * * * * * * * * * * * //

dimensions      [1 -1 -2 0 0 0 0];


internalField   nonuniform List<scalar> 
96000
(
0
-6.758798888039281289297076e-17
-4.729583514470157912727531e-17
1.51415609651178636167216e-17
1.060647880288256856341617e-17
-3.574393204741161230206527e-17
-4.776854729190508797629374e-17
2.201558343903806466810146e-17
-9.454242944074059655136477e-19
-1.311283800003535390101082e-17
-4.682312299749794701874044e-17
-9.828473393943132841316123e-18
-9.454242944073874765861816e-19
-5.650879793030624398321435e-17
-3.574393204741172323563006e-17
-1.264012585283166016271773e-17
-1.297003953890102955116184e-17
-5.837502609478800012561198e-17
-7.087235348648518186408518e-17
-1.216741370562796026144881e-17
1.060647880288253004481728e-17
-3.106605142404191432096913e-17
-1.998686047395547483370499e-17
-2.811652458888616684551025e-18
-1.297003953890092478057287e-17
-6.15510608338233792295837e-19
-1.15519030972898435656936e-17
-3.28436460609226420052545e-18
-9.454242944075292250300885e-19
1.514156096511787286118533e-17
2.402461006465368601864932e-17
-2.33894031168479044227776e-18
-1.202461524449377149706792e-17
-1.169470155842440210862381e-17
-4.727121472037831014425104e-19
-2.811652458888625929014758e-18
1.060647880288265638582163e-17
-7.489533082258601244022888e-18
-3.418299714466556578785153e-17
3.137134468577754999344315e-17
-4.727121472037584495392222e-19
-7.016820935054771920261713e-18
-4.727121472037584495392222e-19
2.029215373569133545479652e-17
-2.029215373569104887642079e-17
-7.016820935054439119567322e-18
4.526218809475275715816596e-17
2.215838190017249687002732e-17
-9.212962785604788115455489e-18
4.062370015031763093127671e-18
2.263109404737617828236876e-17
-2.338940311684587064075633e-18
2.44973222118572934752809e-17
2.669346406240767020456026e-17
-9.454242944075569584212877e-19
-2.338940311684704160616251e-18
2.215838190017249687002732e-17
2.215838190017249687002732e-17
2.215838190017249687002732e-17
-1.202461524449342020744607e-17
4.712841625923374909156165e-17
2.215838190017249687002732e-17
2.215838190017249687002732e-17
2.215838190017249687002732e-17
2.449732221185735202355121e-17
3.371028499746231578381762e-17
2.215838190017249687002732e-17
-1.202461524449342020744607e-17
4.71284162592338168842957e-17
2.263109404737618136385667e-17
1.29454191145674083095005e-17
2.215838190017249687002732e-17
2.449732221185738591991823e-17
2.215838190017249687002732e-17
3.557651316194373912552086e-17
3.371028499746248834714064e-17
8.083870125669563963004756e-17
1.818077867501550645284843e-31
2.215838190017249687002732e-17
-1.249732739169786582878945e-17
2.215838190017249687002732e-17
-9.454242944078712701882117e-19
2.449732221185739824586987e-17
2.215838190017249687002732e-17
2.449732221185733045313583e-17
2.263109404737616903790503e-17
2.215838190017249687002732e-17
2.263109404737618444534459e-17
2.215838190017249687002732e-17
2.263109404737616903790503e-17
2.215838190017249687002732e-17
-4.677880623369587047531342e-18
2.449732221185733045313583e-17
2.215838190017249687002732e-17
2.263109404737617828236876e-17
2.263109404737616903790503e-17
2.215838190017249687002732e-17
2.215838190017249687002732e-17
-9.45424294407455269320224e-19
3.371028499746231578381762e-17
2.449732221185724725296223e-17
5.962574365093131909751164e-17
8.083870125669519589578837e-17
4.573490024195613658469213e-17
3.557651316194353574731873e-17
9.005166404230042774550305e-17
5.82076072093199667116962e-17
3.371028499746220485025283e-17
4.7601128406437849586259e-17
3.557651316194353574731873e-17
8.083870125669507263627193e-17
-9.45424294407288868973029e-19
3.557651316194385622206148e-17
2.215838190017249687002732e-17
-9.454242944070053720852152e-19
-3.527121990020958256724413e-17
-2.123757803009878147965301e-17
2.449732221185731504569628e-17
-1.202461524449329694792963e-17
1.046368034174847378441656e-17
4.025439378531339396578625e-17
2.215838190017249687002732e-17
-9.454242944068050753709989e-19
-2.033647049949752578458474e-18
4.025439378531352955125433e-17
3.604922530914751914547546e-17
-2.686088294787589158923862e-17
-2.324660465571292063451567e-17
3.604922530914754996035457e-17
2.215838190017249687002732e-17
-9.454242944071779354082322e-19
-1.216741370562793560954553e-17
5.18062968826028061231723e-17
2.49700343590611012286267e-17
-9.45424294407288868973029e-19
-2.371931680291758196001282e-17
1.981944158848756776079356e-17
-4.727121472042823024840955e-19
-1.856872403234425803335763e-17
-2.310380619457945910128178e-17
-2.32466046557155029213851e-17
-1.015838708001311236436662e-17
-6.155106083378208729157604e-19
-1.24973273916971262716908e-17
-1.088222755541508448233029e-18
1.060647880288261016350297e-17
1.981944158848759549418476e-17
-1.202461524449218761228166e-17
-2.32466046557156138549499e-17
2.215838190017249687002732e-17
-9.454242944074182914652918e-19
2.215838190017249687002732e-17
2.215838190017249687002732e-17
2.215838190017249687002732e-17
2.168566975296881237619796e-17
2.215838190017249687002732e-17
2.215838190017249687002732e-17
2.449732221185744138670063e-17
2.215838190017249687002732e-17
2.215838190017249687002732e-17
2.215838190017249687002732e-17
2.497003435906111663606625e-17
4.478947594754992623648795e-17
5.824012151827001219641277e-31
2.215838190017249687002732e-17
-2.404923048898824557337956e-17
-9.355761246739186421014328e-18
1.060647880288296145312482e-17
6.401310326715906422944116e-18
-4.57349002419558777397076e-17
-2.185308863843708306468289e-17
2.215838190017249687002732e-17
2.215838190017249687002732e-17
-1.297003953890106036604095e-17
-9.828473393943311567614962e-18
-2.033782021272921060827113e-31
2.263109404737618136385667e-17
-3.418299714466539322452851e-17
1.981944158848737362705517e-17
5.824012151827001219641277e-31
5.546678239835239256801216e-32
-3.465570929186977721611367e-17
7.780054089392955144000932e-19
3.204747427460360459485147e-31
2.215838190017249687002732e-17
1.060647880288272109706776e-17
1.280262065343299613724606e-17
2.215838190017249687002732e-17
2.215838190017249687002732e-17
2.215838190017249687002732e-17
2.215838190017249687002732e-17
2.215838190017249687002732e-17
2.215838190017249687002732e-17
3.37102849974623650876242e-17
4.292324778306764624114545e-17
2.215838190017249687002732e-17
2.215838190017249687002732e-17
1.06064788028825916745755e-17
-2.811652458888237661537969e-18
2.215838190017249687002732e-17
2.215838190017249687002732e-17
3.323757285025845564517734e-17
4.712841625923470435281407e-17
2.215838190017249687002732e-17
2.215838190017249687002732e-17
3.371028499746226648001105e-17
1.294541911456727118328846e-17
2.215838190017249687002732e-17
2.215838190017249687002732e-17
2.215838190017249687002732e-17
2.215838190017249687002732e-17
2.215838190017249687002732e-17
-9.454242944088265314406277e-19
2.215838190017249687002732e-17
2.215838190017249687002732e-17
2.215838190017249687002732e-17
-4.727121472044332953917355e-19
2.215838190017249687002732e-17
-1.20246152444954971302981e-17
-9.685674932807039717406222e-18
2.215838190017249687002732e-17
4.620761238916037882783338e-17
4.760112840643720863677351e-17
2.402461006465342717366479e-17
2.215838190017249687002732e-17
2.215838190017249687002732e-17
2.215838190017249687002732e-17
3.604922530914783345724239e-17
2.215838190017249687002732e-17
1.060647880288317253504673e-17
6.975951030660739439086756e-17
2.449732221185739824586987e-17
2.215838190017249687002732e-17
-1.202461524449501025520815e-17
1.013376665567955121171955e-17
2.449732221185717637874028e-17
1.013376665567961746370963e-17
2.215838190017249687002732e-17
2.449732221185764784639067e-17
3.604922530914759310118533e-17
2.215838190017249687002732e-17
2.215838190017249687002732e-17
2.215838190017249687002732e-17
2.449732221185723184552268e-17
1.013376665567941100401959e-17
2.215838190017249687002732e-17
2.168566975296884627256498e-17
2.449732221185712091195788e-17
2.215838190017249687002732e-17
3.371028499746280882188339e-17
2.215838190017249687002732e-17
4.526218809475223946819691e-17
5.837502609478959017337407e-17
5.648417750597271980842221e-17
1.247270696736425075010393e-17
8.17841255511007221536763e-17
3.527121990020836846100719e-17
7.070493460101730868754078e-17
5.74296018003816480289639e-17
8.083870125669355654421971e-17
9.161259894504817524104367e-17
1.022190777479243450948126e-16
5.74296018003816480289639e-17
8.178412555110152334053316e-17
1.031645020423394855949829e-16
1.474812658426764551405172e-16
5.742960180038258480128885e-17
7.070493460101644587092569e-17
1.031645020423402128261299e-16
1.02219077747924332768861e-16
5.648417750597236235582453e-17
7.070493460101845500104368e-17
9.161259894504836013031833e-17
9.161259894504605517736089e-17
6.756336845606150738947455e-17
2.449732221185739824586987e-17
4.245053563586398948070729e-17
4.493227440868350486626246e-17
9.990968194545162150624439e-18
-3.231676898018477106968214e-17
7.944518523941577763700299e-17
2.230118036130551466900202e-17
-2.371931680291750184132713e-17
-9.685674932810250627809505e-18
7.944518523941619671935888e-17
2.230118036130710163527619e-17
1.04636803417479807463508e-17
-4.43413842246854327737191e-17
2.029215373569125841759874e-17
1.52843594262525300117287e-17
-1.216741370562657975486468e-17
-2.123757803010117887724778e-17
2.154287129183420452946117e-17
2.230118036130631585585888e-17
-1.216741370562656126593721e-17
1.866228164482467966105073e-18
3.371028499746291975544818e-17
1.52843594262523913447727e-17
-2.324660465571316715354855e-17
3.557651316194377610337579e-17
-2.811652458888927914830038e-18
3.418299714466573835117455e-17
2.168566975296882778363751e-17
-1.202461524449510269984549e-17
-2.778168681794642072111293e-17
2.263109404737617211939294e-17
2.215838190017249687002732e-17
-1.202461524449428918703698e-17
2.903240437409259931379402e-17
3.510380101473989747580804e-17
-4.727121472041405540401886e-19
-3.465570929186775576004404e-17
-1.670249586786478219201416e-17
2.215838190017249687002732e-17
2.215838190017249687002732e-17
-1.155190309728866643731159e-17
6.401310326716384053570325e-18
2.215838190017249687002732e-17
2.215838190017249687002732e-17
-2.404923048898563863460684e-17
-2.825439896515428063106172e-17
2.215838190017249687002732e-17
4.47894759475499385624396e-17
-3.465570929186755854481774e-17
6.401310326716239223638507e-18
-1.249732739169855608208152e-17
1.060647880288269336367656e-17
3.173932548350164685836252e-31
1.393516017277729603410146e-18
2.215838190017249687002732e-17
1.060647880288290136411056e-17
-1.202461524449455419499732e-17
2.449732221185715172683699e-17
2.215838190017249687002732e-17
2.215838190017249687002732e-17
2.215838190017249687002732e-17
1.393516017277036268630167e-18
-9.454242944086169902626784e-19
1.060647880288248844473048e-17
1.358936168759633617916298e-30
1.393516017277236565344383e-18
1.060647880288221265156244e-17
2.215838190017249687002732e-17
-9.454242944086169902626784e-19
1.060647880288269336367656e-17
2.215838190017249687002732e-17
2.215838190017249687002732e-17
2.215838190017249687002732e-17
1.393516017277729603410146e-18
1.060647880288200773261636e-17
5.728680333924674435938766e-17
6.756336845605967082267958e-17
5.915303150372660230523209e-17
3.838816562083203225384123e-17
5.681409119204252060517387e-17
6.756336845605752610709351e-17
9.333602864839804757201785e-17
3.838816562083237738048726e-17
5.634137904483643563226183e-17
5.648417750597348401742414e-17
5.915303150372728023257252e-17
3.83881656208319952759863e-17
5.728680333924784136908398e-17
5.648417750597021764023846e-17
3.371028499746271021427024e-17
3.838816562083237738048726e-17
4.52621880947525168021089e-17
4.540498655588695208552267e-17
4.573490024195728289819503e-17
3.838816562083237738048726e-17
4.526218809475183271179265e-17
4.540498655588750059037083e-17
4.573490024195728289819503e-17
3.838816562083049150988572e-17
5.728680333924867953379578e-17
4.493227440868652472441526e-17
4.526218809475086512458859e-17
8.459577800999503034639897e-17
1.474812658426808924831091e-16
4.540498655588522028931668e-17
4.526218809475210388272882e-17
8.459577800999551105851309e-17
1.474812658426808924831091e-16
4.540498655588695208552267e-17
4.526218809475210388272882e-17
8.459577800999454963428486e-17
5.74296018003801935666699e-17
2.230118036130789665915724e-17
3.37102849974632587191184e-17
1.293852539575407595963521e-16
1.031645020423406565603891e-16
2.230118036130789049618142e-17
4.52621880947525168021089e-17
8.459577800999503034639897e-17
1.474812658426749513744167e-16
4.540498655588805525819482e-17
5.634137904483724914507034e-17
9.614768110728382620620282e-17
1.474812658426758141910318e-16
2.230118036130789974064515e-17
1.013376665567888869181868e-17
-3.752152668429198869672878e-18
-2.71612521247447743555428e-17
-8.705782044334421842628252e-18
-1.339351083743755784333003e-18
-3.308985030425745234486839e-18
3.267622717545434358337837e-17
7.87853578672800710442192e-18
-3.80139351709629344157583e-18
3.505948425093994099606381e-18
-2.810667641915213718022569e-17
1.496921799478321596359198e-17
4.37455699558072402804479e-17
-7.306357125216834038252014e-17
-2.735821551941314031720296e-17
1.034057822008051394678564e-17
-5.692242105911022172429527e-18
-2.148870635830070217803441e-17
-1.438817598051198750652468e-17
1.280262065343300384096584e-17
-2.404923048898761078686989e-17
-1.488058446718231692797198e-17
-3.122854622464301610241623e-17
7.100530377788572923065831e-18
-2.855969222688764216545741e-18
2.668853997754101282451567e-18
1.107919095008629311658837e-17
2.064176376122737134127396e-17
2.310380619457985353173439e-17
-2.462042433352442131117585e-18
-3.512842143907364351772978e-17
-1.789412440560595695422777e-17
-3.801393517096253382232986e-18
1.3748044947840288087707e-17
1.013376665567884401024397e-17
7.100530377788572923065831e-18
2.215838190017249687002732e-17
1.723429703346747085934824e-17
-9.454242944070731648192576e-19
-6.814933455519807126827262e-18
1.013376665567878083974179e-17
-4.924084866704841121404416e-18
-9.454242944074306174169359e-19
-4.005250630577810869760905e-17
-3.407466727759965193171851e-18
1.723429703346750167422735e-17
-2.385226709432007066396988e-17
1.552071549985411803589072e-17
8.617148516733787814968607e-18
-4.924084866704828795452772e-18
1.013376665567879316569343e-17
-1.694870011119855715168994e-17
-1.448665767784595478320098e-17
-4.924084866704998277287878e-18
1.600327581679108647493016e-17
-2.11440204176309138337094e-17
1.969633946681995304980867e-17
4.526218809475230726093095e-17
3.910708201137108483659637e-17
2.215838190017249687002732e-17
4.280014566140037049383077e-17
2.215838190017249687002732e-17
2.367500003911766553961143e-17
2.215838190017249687002732e-17
-4.549854416835666246123707e-18
2.235534529484069643134028e-17
2.462042433352496981602401e-17
2.215838190017249687002732e-17
4.280014566140027188621762e-17
2.215838190017249687002732e-17
1.516618138944848194841365e-18
-4.727121472036663130506827e-18
6.167908704034645627503246e-17
6.014277256193474744841937e-17
4.505537653035091619904523e-17
7.122196351202183404814483e-17
7.279767066936605003206442e-17
2.215838190017249687002732e-17
2.367500003911765321365978e-17
1.013376665567872383221544e-17
6.069427006700535369787866e-17
6.836599428933368304769338e-17
-1.890848588814399011647219e-18
4.565611488408868173165359e-17
7.062122515828235520825794e-17
2.215838190017249687002732e-17
1.505785152238400406564717e-17
1.107919095008620837567082e-17
3.816165771696387608630903e-17
3.41829971446661451075788e-17
5.018627296145703744877057e-17
3.855558450629996706014386e-17
4.107671595805333929471055e-17
2.462042433352505301619761e-17
2.70824667668775259621943e-17
2.46204243335250222013185e-17
5.132866065053311752473548e-17
-2.265079038683962154404716e-18
5.018627296145733327161003e-17
5.152562404520049741026411e-17
2.412801584685449248315697e-17
5.095443020066392107903939e-17
2.54082779121990622861985e-18
3.703896636735488775370916e-17
3.151414314691193597305035e-17
6.203362115074895540781611e-17
1.891833405788055584630751e-17
5.058019975079384949077658e-17
2.100614604136359507203897e-17
2.103569055056379203431527e-17
2.166597341350203186311192e-17
3.4576923934002396318785e-17
1.30488248967678912177775e-17
2.310380619457982579834319e-17
3.189822176651476149060256e-17
1.733277873080161378083548e-17
3.348377709351485444340742e-19
1.969633946681996845724822e-17
2.081903081642871951527894e-17
4.803937195957384773603149e-17
1.370865226890722626257652e-17
2.215838190017249687002732e-17
9.7398398663428685922058e-18
5.078701131519590615405108e-17
4.694622511916478519477175e-17
-5.692242105911595329180977e-18
1.66729513586630013449516e-17
5.130896431106913192118474e-18
-1.7894124405606468481221e-17
2.215838190017249687002732e-17
-3.230199672558305788887862e-18
-1.852440726854422759790353e-17
1.304882489676841352997842e-17
-1.543208197225434682484616e-17
-2.284775378151087794136786e-18
2.482723589792616982565925e-17
4.214031828926126193839322e-17
-1.297003953890186771587364e-17
-5.869509161112160805256555e-18
-1.734262690053469126635553e-17
-2.478784321899333603063418e-17
-7.208860244856643820736559e-18
-4.146079457765074139353937e-18
-3.230199672558253403593374e-18
-1.18178036800917086708176e-17
8.242918066864212346259465e-18
3.730486695015773277198887e-17
-1.525481491705137778819998e-17
-5.662697596711293596315705e-18
2.121295760576515253427189e-17
2.215838190017249687002732e-17
2.215838190017249687002732e-17
3.512842143907294093848607e-17
2.215838190017249687002732e-17
2.215838190017249687002732e-17
5.823222763365246783250189e-17
2.310380619457984736875857e-17
1.969633946681991607195374e-17
2.215838190017249687002732e-17
-9.45424294407144039041211e-19
1.107919095008640559089712e-17
2.215838190017247529961194e-17
2.215838190017249687002732e-17
2.215838190017249687002732e-17
-7.38612730005749279369995e-18
-2.38719634337862317979858e-17
-2.266063855657610407370889e-17
9.739839866342501895144388e-18
-2.109477956896425991457773e-17
-3.306030579505728003449538e-17
-1.447680950811740400342222e-18
-2.1262266586035083817738e-31
-1.07935940278178216024453e-17
1.220188229969520133050254e-17
-2.114402041763276272645601e-17
3.41829971446662005743612e-17
3.816165771696344467800148e-17
1.107919095008640559089712e-17
1.969633946681988833856254e-17
3.418299714466623755221613e-17
1.505785152238480525250404e-17
2.422649754418856453042226e-17
3.39663374105311372997886e-17
6.836599428933211765183458e-17
4.119489399485492833067261e-17
4.526218809475204841594642e-17
-1.733277873079849839655744e-18
2.215838190017249687002732e-17
1.107919095008601116044451e-17
5.209681788973905821970353e-18
1.516618138944731098300746e-18
2.215838190017249687002732e-17
-9.45424294407618588179508e-19
2.215838190017249687002732e-17
2.708246676687746433243608e-17
4.620761238915946054443589e-17
2.215838190017249687002732e-17
1.165038479462440711028069e-17
2.462042433352499754941521e-17
2.215838190017249687002732e-17
2.215838190017249687002732e-17
1.107919095008679848060578e-17
2.310380619458000144315412e-17
2.215838190017249687002732e-17
2.215838190017249687002732e-17
2.310380619457984428727065e-17
2.310380619457998295422665e-17
1.013376665567922457400098e-17
2.215838190017249687002732e-17
1.013376665567904892919005e-17
2.462042433352500063090312e-17
2.310380619457984736875857e-17
2.462042433352516703125032e-17
2.215838190017249687002732e-17
2.462042433352503144578223e-17
6.836599428933049062621757e-17
6.126546391154494372428036e-17
5.387933661148600263126223e-17
5.359373968921845710423642e-17
8.900775805055613325277344e-17
5.264831539480883246742684e-17
2.160688439510151467904289e-17
2.753548257461410330521906e-17
6.590395185597682822588722e-17
6.808039736706519458536681e-17
2.215838190017249687002732e-17
2.215838190017249687002732e-17
2.215838190017231506224057e-17
2.215838190017249687002732e-17
2.481738772819305228079636e-17
5.827162031258530779050278e-17
-9.454242944087433312670302e-19
2.121295760576514020832025e-17
2.121295760576514328980816e-17
2.215838190017249687002732e-17
2.215838190017262937400749e-17
2.215838190017249687002732e-17
4.545915148942181953609401e-17
-1.198522256555908264632042e-17
2.215838190017231506224057e-17
2.215838190017249687002732e-17
5.823222763365434137715179e-17
2.215838190017249687002732e-17
-9.454242944084721603308605e-19
4.526218809475153072597737e-17
1.516618138945720255920184e-18
3.323757285025884391265413e-17
1.969633946681990990897791e-17
-1.297003953889958741481949e-17
2.121295760576515253427189e-17
2.12129576057651001489774e-17
4.660153917849550221446415e-17
1.400409736090940357762469e-16
6.228967356381826996185285e-17
5.416493353375459586417778e-17
8.41920030509191226729827e-17
4.410995223594429293146098e-17
7.311281210083572153279882e-17
6.048745850260502266783433e-17
7.311281210083488336808702e-17
8.029212783649297574109177e-17
8.644723391986921231798632e-17
4.940826755251826270582744e-17
3.55223482284096482099031e-17
4.48781094751497220994358e-17
6.23980034308850343086493e-17
1.399424919117507993839343e-17
6.108819685634169119074637e-17
8.275417026984455505559427e-17
7.536804296978677260203068e-17
6.048745850260327238270087e-17
5.862615442299008722434058e-17
8.029212783649159523450763e-17
8.739265821427954569701544e-17
5.859660991379115983508362e-17
-1.890848588814962923934935e-18
1.762822382280371898906653e-17
1.568813438532142113717159e-17
1.374804494784090438528921e-17
1.969633946681988525707463e-17
2.501435112286132579781919e-17
-8.863352760080166060200462e-19
-1.684037024412897016196699e-18
1.969633946682010404271631e-17
2.501435112286121178276648e-17
-2.77718386482215985417065e-18
1.526466308678540129050872e-17
7.698314280606910405125483e-17
5.974884577259712805658068e-17
2.820515811648691796971051e-17
1.526466308678568170590862e-17
1.589494594972348704490982e-17
6.925232956533861816580241e-17
6.681983164118645927862263e-17
-1.74017159189347708791412e-17
1.969633946682021805776902e-17
3.664503957801908027676215e-17
1.712596716639953246565769e-17
-4.14607945776559799229881e-18
-6.263435950450445798484031e-18
1.526466308678540745348454e-17
9.188342361271875616013683e-18
1.969633946681990682749e-17
-3.801393517096466004898847e-18
-2.478784321899217122820382e-17
1.01337666556791059367164e-17
1.969633946681983903475596e-17
-2.879604830048965543495115e-17
-9.355761246740585416525931e-18
-1.789412440560404026874711e-17
7.671724222326123004470434e-18
1.371850043864102019403588e-17
2.084857532562891955904314e-17
-2.836272883221866606919087e-18
1.969633946681996845724822e-17
-4.746817811502371285799828e-18
-1.276322797450021164602757e-17
1.013376665567893799562525e-17
1.013376665567844187607158e-17
6.332373138583057473429499e-18
1.431923879237737902741287e-17
-1.297003953890049337226533e-17
-4.35289102216861299831364e-18
-3.801393517094761942084053e-18
-7.386127300055711693687381e-19
-1.890848588815468287952343e-18
2.215838190017297758214144e-17
3.41829971446659478923525e-17
3.077553041690531093481604e-17
2.462042433352517627571405e-17
2.462042433352543512069858e-17
2.215838190017249687002732e-17
4.280014566139871881631047e-17
1.259580908903090557760454e-17
2.462042433352517011273823e-17
-4.352891022166425141896816e-18
6.684937615038769162083703e-17
5.700120641697846543823903e-17
3.664503957801824211205035e-17
1.013376665567907974406916e-17
4.280014566140038281978242e-17
2.46204243335249390011449e-17
1.96963394668202149762811e-17
2.462042433352513621637121e-17
3.418299714466598487020743e-17
2.215838190017249687002732e-17
1.969633946682005473890973e-17
2.215838190017249687002732e-17
7.67172422232644347921318e-18
2.462042433352513621637121e-17
4.660153917849619246775622e-17
2.905210071355937674539214e-17
4.374556995580806611920806e-17
5.018627296145743187922318e-17
4.90635816118487455324386e-17
3.918586736923721464983316e-17
5.577018520030362487926437e-17
3.664503957801824827502617e-17
5.76807301285802099055223e-17
5.215590690813915632141667e-17
6.590395185597898526742493e-17
3.664503957801824827502617e-17
6.203362115075346670611784e-17
2.441361276912427517040618e-17
4.280014566140091283570311e-17
5.974884577259732527180698e-17
4.754696347290367238897973e-17
4.969386447478482831969754e-17
6.684937615039031704853722e-17
4.86696548225132215523794e-17
4.660153917849569942969045e-17
5.063928876919501378730693e-17
4.280014566139997606337816e-17
3.664503957801725603591883e-17
5.000900590625736560418919e-17
5.310133120254788116375623e-17
4.526218809475100071005668e-17
6.355023928969578499938426e-17
6.088138529194044804028038e-17
3.861467352469986178365486e-17
5.728680333924471057736638e-17
6.601228172305026091252312e-17
6.088138529194076851502312e-17
3.861467352469996655424384e-17
5.728680333924471057736638e-17
6.601228172305012532705503e-17
6.088138529193808145756471e-17
5.063928876919485971291138e-17
5.57701852003033537083282e-17
6.601228172304709314295059e-17
4.48781094751499439665654e-17
3.918586736923721464983316e-17
4.620761238915989195274344e-17
5.152562404520229083622833e-17
5.690272471964203913420973e-17
2.810667641915246998092008e-17
4.52621880947514814221708e-17
5.24710483396084457176501e-17
5.690272471964256915013042e-17
5.063928876919338676168991e-17
-1.754943846493661234416194e-17
-4.978249800238753310723339e-17
-1.307836940596847798827455e-17
4.850223593704420206233209e-17
6.948868563894094574706307e-17
3.827983575376465777243839e-17
6.115713404447604698784948e-17
1.678128122573064083431478e-17
5.728680333924601712824065e-17
6.467293063930341747730327e-17
3.038160362756982393261177e-17
4.944766023145165116867649e-17
8.588588824506852687074441e-17
-7.681572392059345319922301e-19
5.593760408576833028623625e-18
7.87853578672803791930103e-18
5.634137904483866662950941e-17
5.500202796109491700815222e-17
5.24808965093418714113041e-17
7.082803672268455978295217e-17
5.634137904483872825926763e-17
-2.917027875036016459449733e-17
4.850223593704431299589689e-17
5.880342147819121969419179e-17
4.431676380034490745839312e-17
7.082803672268465839056532e-17
-1.297003953890082617295972e-17
1.969633946682000851659107e-17
7.944518523941885912491401e-17
5.321950923934753502531016e-17
2.0267533311357789709589e-17
3.475419098920385542635478e-17
3.323757285025873297908933e-17
4.583338193929008537244097e-17
4.526218809475241819449575e-17
2.859908490582265149094766e-17
9.739839866342589717549852e-18
1.034057822008039839098897e-17
2.081903081642872875974267e-17
6.639636034265050414320589e-17
-6.637666400318421974967353e-18
-5.377100674441819057857602e-18
9.454242944073592809717957e-18
1.924332365908310761733566e-17
3.710790355548879981655308e-17
7.037502091494765580220885e-17
2.121295760576514637129607e-17
3.967827585590881364429981e-17
7.277797432990090578905914e-18
5.437174509815658473471824e-17
5.785799718378373360999245e-17
5.880342147819109643467535e-17
-1.336396632823716366582743e-17
2.236519346457398653952619e-17
4.796058660170692906188947e-17
3.664503957801843932727666e-17
2.121295760576514637129607e-17
-2.068115644015956726830145e-18
-1.576691974318942141357037e-17
1.013376665567895648455272e-17
2.215838190017249687002732e-17
1.989330286148821115939194e-17
2.310380619457982579834319e-17
2.806728374021850836131958e-17
2.215838190017249687002732e-17
1.686006658359786149427208e-17
4.441524549767989778905589e-18
4.431676380034492594732059e-17
6.278208205048920951790654e-17
2.215838190017249687002732e-17
4.073203001738400701059637e-17
9.680750847942117215055528e-18
1.013376665567891334372196e-17
3.512842143907334769489032e-17
2.635370220660516170083788e-17
1.516618138944866683768831e-18
4.469099425021419634872654e-17
1.949937607215182436271766e-17
2.196141850550429730871435e-17
2.556584862793239118897721e-17
-1.448665767784561581953077e-17
-1.600327581679261181144612e-17
2.304471717618577049442356e-18
-2.033782021272921060827113e-31
-1.710627082693291218994302e-17
1.013376665567898575868787e-17
1.359047423210625660568458e-18
3.512842143907345862845512e-17
2.059252291256035996954461e-17
1.85736481172113252512944e-17
7.350673889017260136753887e-17
9.771354009489212049126049e-17
4.328270597833673187975175e-17
2.255230868950876657016099e-17
3.648746886228385009594234e-17
4.526218809475229493497931e-17
2.294623547884529203379127e-17
2.158718805563469718810192e-17
2.540827791219776806127588e-17
2.215838190017249687002732e-17
2.215838190017249687002732e-17
2.255230868950890523711698e-17
4.945750840118497209174151e-17
3.607384573348096936455774e-17
1.202461524449357890407349e-17
4.660153917849566861481134e-17
4.510461737901758244412855e-17
3.512842143907355723606827e-17
-9.454242944077233587684827e-19
2.215838190017249687002732e-17
1.516618138945760315263027e-18
3.172095471131369065050957e-17
2.70824667668774119471416e-17
3.759046387242597471528257e-17
3.134672426144392104806204e-17
4.717273302303381034189486e-17
3.303076128585713237602566e-17
2.215838190017249687002732e-17
1.013376665567885787693957e-17
9.011075306070230078425293e-18
2.16659734135020257001361e-17
5.711938445371433250003486e-19
4.224864815632813721875447e-17
1.861304079614282168056608e-18
-3.221336319798400774600524e-17
1.013376665567879008420552e-17
1.91448419617490448145341e-17
2.485678040712677662582771e-17
2.215838190017249687002732e-17
2.46204243335250222013185e-17
4.224864815632874119038503e-17
4.615837154049268336578778e-17
2.121295760576513712683233e-17
2.215838190017249687002732e-17
4.376526629527409783073171e-17
1.663355867972956974127179e-17
9.070164324470807351508593e-18