# geometry NO_DATA 664
#  x  y  z
2.898419889714765051991208 0.0412379437024343112327962 1.392818053987668225346397
2.896839779429530636889467 -0.01666666666666664214924154 1.394038861565982445611667
2.898419889714765051991208 0.007904610369100971423161894 1.392818053987668669435607
2.891091568916557719148841 0.005170245640720345231544641 1.396839779429530636889467
2.886923468688818772420746 -0.02500286712214380702157257 1.398419889714765051991208
2.886923468688818772420746 0.03534335840358446972908624 1.398419889714764829946603
2.896068431873078274918498 -0.0468397794295307839940179 1.393267514009530305685303
2.890320221360104913088662 -0.0468397794295307978718057 1.396068431873078496963103
2.890320221360104913088662 0.04683977942953081174959351 1.396068431873077830829288
2.896068431873077830829288 0.04683977942953081174959351 1.393267514009529861596093
2.947708049239452954282115 0.04060098235462496901737595 1.392892933115171150149081
2.945416098478907063196175 -0.01666666666666666296592325 1.393008540416766027902895
2.947708049239453842460534 0.007267649021291637881359016 1.392892933115171150149081
2.931368710746261374566757 -0.0114281087986245512289063 1.392796819544886322006505
2.919613273774161577023278 0.0120827651455740064934119 1.392469491371411516311696
2.945320793706348361240543 -0.04541609847890729773078888 1.392913235644207547991869
2.916993994840141102287134 -0.04017754061086518946321888 1.392287852441884243859249
2.928654127039682197874981 -0.04541609847890729773078888 1.392519875842800569643032
2.931273405973702672611125 0.0401775406108652241576884 1.392701514772327842095478
2.916898690067583288509923 0.04476144213195792920245708 1.392192547669325763948223
2.945320793706348361240543 0.04541609847890729773078888 1.392913235644207547991869
2.902619278934020830007512 0.03915960640486142174676587 1.391778885338882165711993
2.905238557868042192922076 0.01106483093957019714359546 1.39196052426840943816444
2.902619278934020830007512 -0.01702994452572106215404446 1.391778885338882165711993
2.960250864829082395601745 -0.03836376333079533074155165 1.398614628159878581215025
2.957203490174722837480203 -0.007801173677704793980869358 1.397229256319757029203288
2.960250864829082395601745 0.02276141597538574451453641 1.398614628159878581215025
2.955818118334601951602281 -0.04722925631975721794120204 1.396207070097737368286062
2.955818118334601951602281 0.04722925631975720406341424 1.396207070097737368286062
2.951385371840120619424397 0.0424141401954748753500013 1.393799512035596155357098
2.952770743680242393480739 0.01185155054238432904833989 1.394821698257616038318929
2.951385371840121507602817 -0.01871103911070620684498067 1.393799512035596155357098
2.799872017543327817890031 0.04912618998600599973247682 1.449254172442678179066888
2.799744035086655813415746 -0.0166666666666666594964763 1.449435112536330727550649
2.799872017543327817890031 0.01579285665267266686173642 1.449254172442678179066888
2.799324383882130895528917 0.01582736425761700413405997 1.449744035086655280508694
2.799032715134278426205583 -0.01725000416237177508493872 1.449872017543327729072189
2.799032715134278426205583 0.04890473267760576947527085 1.449872017543327729072189
2.799622391238425933579492 -0.04974403508665543871547499 1.449313468688100403625185
2.799202740033900571603453 -0.04974403508665543871547499 1.44962239123842540067244
2.799202740033900571603453 0.04974403508665545259326279 1.449622391238424956583231
2.799622391238425045401073 0.04974403508665545259326279 1.449313468688100403625185
2.844012341082359895949594 0.01533179824979849850685731 1.421319457167438571332241
2.838024682164720147170556 -0.01666666666666670112983972 1.426678240207259307226195
2.844012341082359895949594 -0.01800153508353483783333004 1.421319457167438571332241
2.821858212169274793268414 -0.01566627332422458607208426 1.437524485493498760391162
2.811679401091469188145311 0.004691348831386561724077211 1.443011947739917921751385
2.836842694142874599094739 -0.03802468216471989459481762 1.425496252185413981194984
2.81117920442024793459268 -0.03702428882227778994540301 1.44320322186081417825676
2.820176027476208435729177 -0.03802468216471989459481762 1.436533771592549912909931
2.820676224147429245192598 0.03702428882227778994540301 1.43634249747165387844916
2.809997216398402830606074 0.04899960665755791200393077 1.442021233838969296314758
2.836842694142874599094739 0.03802468216471987377813591 1.425496252185413981194984
2.800500196671221520006156 0.0483817615569084730209326 1.448881958228129374077753
2.801000393342442329469577 0.0160488215660172517385007 1.448690684107233339616982
2.800500196671221075916947 -0.01628411842487399729950681 1.448881958228129374077753
2.867266384448063920586947 -0.045358926501579389933827 1.406347928294370053237117
2.856347928294370674962011 -0.045358926501579389933827 1.411668153003576176018896
2.856347928294369786783591 0.04535892650157939687272091 1.411668153003576176018896
2.867266384448063476497737 0.045358926501579389933827 1.406347928294370053237117
2.874157449056597091185949 -0.02352201419419240602248777 1.402320536749209978211184
2.865559529652113468500829 0.005170245640720322680139454 1.404641073498420045240209
2.87415744905659664709674 0.03386250547563304791331973 1.402320536749209978211184
2.854641073498419778786683 -0.006026217248254699294929271 1.409961298207626168021989
2.852320536749209711757658 0.02266604258665802507088927 1.412960986167622223774742
2.852320536749209711757658 -0.03471847708316742886491824 1.412960986167622223774742
2.994045340714072800381018 -0.002812202659169814409484411 1.412881891289675451162111
2.997022670357036844279719 0.02456647138823678938601702 1.416831793650460413758196
2.997022670357036844279719 -0.03019087670657642080707106 1.416831793650460413758196
2.984788750184851124913621 -0.04404534071407326806246729 1.409904561646711629308015
2.984788750184850236735201 0.04404534071407326806246729 1.409904561646711629308015
2.98181142054188663692571 -0.0166666666666666664353702 1.40595465928592666671193
2.972554830012664517369103 -0.01375583296363152435715094 1.402977329642963510991649
2.972554830012664517369103 0.01957750036970180851358947 1.402977329642963510991649
3.027902496984926195011667 -0.01768012340258161632644551 1.445582620387508399062426
3.02057731791120076536572 0.006818450705768256542294026 1.441165240775016620489168
3.027902496984926195011667 0.03131702481411813288048052 1.445582620387508399062426
3.016159938298708542703253 -0.0411652407750165497124506 1.435843185724589909924021
3.016159938298708542703253 0.04116524077501654277355669 1.435843185724589909924021
3.004417379612491778573258 0.02168637144918006409710642 1.426103751061671864874825
3.008834759224982668968096 -0.002812202659169820047335708 1.431425806112098131350763
3.004417379612491334484048 -0.02731077676751969898760741 1.426103751061671864874825
2.747286614426347917117255 0.03220587953589307272928011 1.484919265109544861402924
2.74457322885269627832372 -0.01666666666666665602702935 1.488389554194294195355042
2.747286614426347917117255 -0.001127453797440253202566396 1.484919265109544861402924
2.735080885926482352488165 -0.002318019185761487077623855 1.49457322885269583423451
2.728301928573920065446146 -0.03022458137179084847190325 1.497286614426347473028045
2.728301928573920065446146 0.02558854300026786737776163 1.497286614426347917117255
2.742771492990345283402576 -0.04457322885269601742130874 1.486587818331943644523108
2.733279150064131357567021 -0.04457322885269602436020264 1.492771492990345061357971
2.733279150064131357567021 0.04457322885269602436020264 1.492771492990345061357971
2.742771492990345283402576 0.04457322885269602436020264 1.486587818331943644523108
2.778458881398182089839111 -0.03951910802035077385774287 1.462211865936040355862247
2.762211865936040400271168 -0.03951910802035077385774287 1.47269485794430576852676
2.762211865936040400271168 0.03951910802035078079663677 1.47269485794430576852676
2.778458881398182089839111 0.03951910802035078079663677 1.462211865936040355862247
2.787734476914108583400775 -0.007025077096067115431377026 1.455240445989824715766758
2.776727907441791209919302 0.01582736425761700066461302 1.460480891979649253897833
2.787734476914108583400775 0.03867980561130111155643263 1.455240445989824493722153
2.760480891979649076262149 0.004299317349863723478065047 1.470963883987914444517742
2.755240445989824316086469 0.02715175870354783610460814 1.476206430006354874961971
2.755240445989824316086469 -0.01855312400382038567903109 1.476206430006354874961971
3.046492497696722256961266 -0.008288506037796520425908753 1.457696582617711733576016
3.048246248848360373528976 0.02153732499226007623960299 1.460131911780508495724007
3.048246248848361261707396 -0.0381143370678531170914205 1.460131911780508495724007
3.043322140867911862471828 -0.04649249769672326310088195 1.455942831466073394963701
3.043322140867911418382619 0.04649249769672326310088195 1.455942831466073394963701
3.041568389716273301814908 -0.0166666666666666664353702 1.453507502303276632815709
3.038398032887462463236261 0.003310948402491529444363616 1.451753751151638294203394
3.038398032887462463236261 0.03664428173582486014669968 1.451753751151638294203394
3.088796321600447924993205 -0.00486809645916355150652155 1.493664418059611032063572
3.0789015337108072145611 0.01579407299339204845400886 1.487328836119222064127143
3.088796321600447924993205 0.03645624244594765361870969 1.493664418059611032063572
3.072565951770418024580067 -0.03732883611922226813062409 1.481186831707379525369106
3.072565951770418024580067 0.03732883611922226119173018 1.481186831707379525369106
3.05633558194038812416693 0.01237366341475907086100428 1.468709245355147796630035
3.062671163880777314147963 -0.008288506037796527364802657 1.474851249766990557432678
3.05633558194038812416693 -0.02895067549035212212116264 1.468709245355147796630035
2.649296552337864429915726 0.04518543206192869587933814 1.545888879724064413068163
2.648593104675728504560084 -0.01666666666666666296592325 1.546889268368828229682777
2.649296552337864429915726 0.01185209872859536994749163 1.545888879724064413068163
2.646359584022496491684251 0.01219962536020277772685905 1.548593104675728415742242
2.64482951103140040416406 -0.01972681264885883800630495 1.549296552337864341097884
2.64482951103139996007485 0.04412606336926439692947 1.549296552337864341097884
2.647955123710252767210704 -0.04859310467572827696436377 1.546251287403352714378002
2.645721603057020754334872 -0.04859310467572828390325768 1.547955123710252678392862
2.645721603057021198424081 0.04859310467572829084215158 1.547955123710252678392862
2.647955123710252767210704 0.04859310467572829084215158 1.546251287403352936422607
2.692732813930168056515413 0.01164102397875663337523111 1.518908210048588891538657
2.685465627860335935395142 -0.01666666666666667684371106 1.52355332591954617527108
2.692732813930168056515413 -0.02169230935457670123023277 1.518908210048588891538657
2.67274536526504746802857 -0.008773858523911087087254757 1.531519223788957662080179
2.667292288739590677693059 0.002132294527002161384221512 1.534840005787412309246065
2.685013136098235442261739 -0.03546562786033551767372884 1.523100834157446126226887
2.663345884668212537604859 -0.02757281971757992444782559 1.5370825735518902632748
2.668346469431569278896177 -0.03546562786033551073483494 1.533309299791335789109326
2.672292873502946974895167 0.02757281971757991057003778 1.531066732026858057125196
2.662893392906112488560666 0.0421071918572444026107604 1.536630081789790214230607
2.685013136098236330440159 0.03546562786033551073483494 1.523100834157446126226887
2.653946404071378051270358 0.03869951924344481458684086 1.542645923314822642424815
2.657892808142755747269348 0.01325899405286706800310981 1.540403355550344688396081
2.653946404071378051270358 -0.01218153113771066123338649 1.542645923314822642424815
2.712921679083168502444323 -0.04575601543025668155317831 1.505747355342715199100212
2.705747355342715820825106 -0.04575601543025668155317831 1.5105017200685928457915
2.705747355342715820825106 0.04575601543025670236986002 1.5105017200685928457915
2.712921679083168502444323 0.04575601543025670236986002 1.505747355342715643189422
2.716470639765776518004259 -0.03140736794935150566487891 1.50212199228487142121935
2.711418308310196145782811 -0.002318019185761470597750833 1.504243984569743064483305
2.716470639765777406182679 0.02677132957782854538741901 1.50212199228487186530856
2.704243984569743908252804 -0.007157937214912189240190177 1.508998349295620489129988
2.702121992284872042944244 0.02193141154867782674497967 1.511630721736626270512716
2.702121992284872042944244 -0.03624728597850222083787131 1.511630721736625826423506
3.0996867840414688011208 -0.01594990763626135191199928 1.500671595473733965775409
3.099843392020734444969321 0.01707020973854068979225218 1.500873367009671000005255
3.099843392020734000880111 -0.04897002501106340055514465 1.500873367009671000005255
3.099407095184096849749267 -0.04968678404146871507851557 1.500514987494468321926888
3.099407095184096849749267 0.04968678404146871507851557 1.500514987494468321926888
3.099250487204831205900746 -0.01666666666666666296592325 1.500313215958531287697042
3.098970798347459698618422 0.01548085703486076422641382 1.500156607979265643848521
3.098970798347459698618422 0.04881419036819410056660118 1.500156607979265643848521
3.136985462524536139028442 0.00761549349913893947050525 1.52515561755836648316631
3.143492731262267803060695 0.02793428935700872223213409 1.530789428903537308102045
3.143492731262267803060695 -0.01270330235873084676057054 1.53078942890353753014665
3.111972383015679355366956 -0.03555693548066527626128064 1.508320253824475987158849
3.127924786160409809099292 -0.036985462524536452666446 1.519747070385443210582821
3.101812985086743967855227 -0.0485714729561288263703922 1.502171364601946779160357
3.101812985086743967855227 0.04857147295612885412596782 1.502171364601946779160357
3.111972383015679355366956 0.03555693548066530401685625 1.508320253824475987158849
3.127924786160409809099292 0.036985462524536452666446 1.519747070385443210582821
3.121033059379804797117686 -0.01523813962279548829548137 1.513728800997399481786942
3.111587924972806007417603 0.003652129191203144949195991 1.507935795781603083298705
3.101428527043871063995084 -0.01594990763626133109531757 1.501786906559073653255609
3.100714263521935354361858 0.01595489865320082190081052 1.501431022552340843745355
3.100714263521935354361858 -0.04785471392572351878591519 1.501431022552340843745355
3.164033273822902447847127 -0.03399146307017060497646099 1.548024736893073738386306
3.159979531571841082637775 -0.004608655950690718552942293 1.546049473786146766229876
3.164033273822902891936337 0.02477415116878916440112945 1.548024736893073516341701
3.15800426846491433252595 -0.04604947378614655112416543 1.543499150309309619899523
3.15800426846491433252595 0.04604947378614655806305933 1.543499150309309175810313
3.151975263106926661293983 0.03699830061861882762874743 1.538973563725545279368134
3.153950526213853411405807 0.007615493499138946409399153 1.541523887202382647743093
3.151975263106926661293983 -0.02176731362034094521828997 1.538973563725545723457344
2.59737137498920800382507 0.03227030048185710459085485 1.584898925492649546242774
2.594742749978415918832297 -0.01666666666666664908813544 1.588506525230136690041149
2.59737137498920800382507 -0.001063032851476230448289906 1.584898925492649546242774
2.587378204012804161493477 0.001937574735442847530600408 1.594742749978415918832297
2.58264228305798404505822 -0.02613850857630635460271407 1.59737137498920800382507
2.58264228305798404505822 0.03001365804719203361772273 1.59737137498920800382507
2.592980049204162362741499 -0.0447427499784158536066947 1.586743824455883578039561
2.585615503238550605402679 -0.0447427499784158536066947 1.592980049204162584786104
2.585615503238550605402679 0.04474274997841587442337641 1.592980049204162806830709
2.592980049204162362741499 0.04474274997841587442337641 1.586743824455883578039561
2.625772367448190980354639 -0.04059847102165382165539498 1.561339221434756341366779
2.6113392214347563857757 -0.04059847102165382859428888 1.571769663353143720030403
2.6113392214347563857757 0.04059847102165384247207669 1.571769663353143720030403
2.625772367448190980354639 0.04059847102165384247207669 1.561339221434756341366779
2.633567056516042725888838 -0.0117321789947843722889953 1.554700764489173270277433
2.623834674991781135133806 0.01219962536020279160464685 1.559401528978346274101341
2.633567056516042725888838 0.03613142971518994855939511 1.554700764489173270277433
2.609401528978346096465657 0.004194217170107919154253828 1.56983197089673387480957
2.60470076448917264855254 0.02812602152509507263955513 1.575561648325948027604682
2.604700764489173092641749 -0.01973758718487925167828223 1.575561648325948027604682
3.192984077609715143353242 -0.001133303641203370348833346 1.564782603903017488278238
3.196492038804857660494463 0.02518410730184449802804281 1.569041324220606492545471
3.196492038804857660494463 -0.0274507145842512456646034 1.569041324220606492545471
3.185854377496178280182448 -0.04298407760971453828169331 1.561274642707874749092412
3.185854377496179168360868 0.04298407760971454522058721 1.561274642707874749092412
3.182346416301035763041227 -0.0166666666666666525575824 1.557015922390285966869783
3.175216716187499788048854 -0.01162457834097618131208307 1.553507961195143005639352
3.175216716187500232138063 0.02170875499235715502810429 1.553507961195143227683957
3.229586232953203683848642 -0.01619210046368085506585111 1.595778333416884686712933
3.221125616351275144921829 0.008697899703421805434055969 1.591556666833769284608024
3.229586232953203683848642 0.03358789987052446940341 1.595778333416884686712933
3.216903949768159520772315 -0.04155666683376933040472423 1.586878348262949822711221
3.216903949768159964861525 0.04155666683376932346583033 1.586878348262949600666616
3.204221666583116245874407 0.02375669652589927974273287 1.577978363109014958709508
3.208443333166231425934711 -0.001133303641203381841376374 1.582656681679834420606312
3.204221666583115357695988 -0.02602330380830604472652823 1.577978363109014958709508
2.547829398452237548156063 0.03454603257675634142565002 1.636716634124518510162716
2.54565879690447571803702 -0.01666666666666666990481716 1.640102414740616243449267
2.547829398452237548156063 0.00121269924342301072331396 1.636716634124518510162716
2.541667143951408025515093 0.008683360760531205063683657 1.645658796904475806854862
2.539846092546102163112209 -0.02030876947727804776588911 1.647829398452238081063115
2.539846092546102163112209 0.03767549099834045789325643 1.647829398452238081063115
2.544667428461198532829712 -0.04565879690447592620383688 1.639111046297339280286565
2.540675775508131284396995 -0.04565879690447592620383688 1.644667428461199065736764
2.540675775508131284396995 0.04565879690447591926494297 1.644667428461199065736764
2.544667428461198976918922 0.04565879690447591926494297 1.639111046297339280286565
2.568006015187084933870665 -0.04336451400871124683966684 1.608703894486030572252844
2.558703894486030083754713 -0.04336451400871124683966684 1.619814178988837394257416
2.558703894486030083754713 0.04336451400871124683966684 1.619814178988837838346626
2.568006015187084933870665 0.04336451400871125377856075 1.608703894486030794297449
2.571921984397753213613669 -0.02476027260660174783568621 1.603317742995644445969106
2.565937606692342942693585 0.001937574735442829099163475 1.606635485991288803120369
2.571921984397753213613669 0.02863542207748740603401316 1.603317742995644445969106
2.556635485991288092577634 0.005553902338947086861353775 1.617745770494095625124942
2.553317742995643957470975 0.03225174968099166206147999 1.625538312001258312022856
2.553317742995643957470975 -0.02114394500309749180821939 1.625538312001258312022856
3.247357375382613042802404 -0.01076817721100097394182349 1.605591869345219580011985
3.248678687691306521401202 0.01992253150494528030067798 1.607219801764359079498945
3.248678687691306521401202 -0.04145888592694722818432496 1.607219801764359079498945
3.244694304209684077022757 -0.04735737538261292761676557 1.604270557036526101413187
3.244694304209684077022757 0.04735737538261292067787167 1.604270557036526101413187
3.243372991900990598423959 -0.01666666666666666296592325 1.602642624617386823970833
3.240709920728061632644312 0.006055275086034732009987458 1.60132131230869356741664
3.240709920728061632644312 0.03938860841936806661545134 1.601321312308693345372035
3.284150471572426344124551 0.01031839036483440594227368 1.629342056943324346107715
3.292075235786213305289039 0.02780219527059396567025829 1.634909821245288163993337
3.292075235786213305289039 -0.007165414540925152050987457 1.634909821245288163993337
3.273449498226846721138372 -0.02069428928747034726609577 1.622632359987753236651997
3.283388073751035030056755 -0.03415047157242621922446091 1.629396797361026161254927
3.264707595773966630758878 -0.03654381771504412734774547 1.617656840501799253573267
3.264707595773966630758878 0.03654381771504412734774547 1.617656840501799253573267
3.273449498226846721138372 0.02069428928747034726609577 1.622632359987753236651997
3.283388073751035030056755 0.03415047157242621922446091 1.629396797361026161254927
3.274211896048238035206168 -0.003210484381710794910685935 1.622577619570051865593996
3.272198084737836243363063 0.000817138239092886895821588 1.621380946498742758876688
3.263456182284955708894358 -0.01076817721100097394182349 1.616405427012788553753353
3.256728091142477854447179 0.009108973837376481766381353 1.612626580598143677391931
3.256728091142477854447179 -0.03064532825937843485419876 1.612626580598143677391931
3.310088715758050970094928 -0.03851443291228593551744908 1.64860314867033652674877
3.307139634873520694924309 -0.00797480223827953804693891 1.647206297340672920270777
3.310088715758050970094928 0.0225648284357268559541243 1.64860314867033652674877
3.305742783543856866401711 -0.04720629734067306737532732 1.645429010519420476299501
3.305742783543857754580131 0.04720629734067306737532732 1.645429010519420476299501
3.301396851329664094976124 0.04085802103884079994333689 1.642254872368504425850233
3.302793702659327479409512 0.01031839036483440594227368 1.644032159189756869821508
3.301396851329664094976124 -0.02022124030917198805878954 1.642254872368504425850233
2.532743832966030339548524 0.005043768118822308452187109 1.672299935152792293990842
2.532654742572131745248498 -0.00522194890661900612549573 1.677432793665512900105341
2.534155228254204139659578 0.008222920270763892092169556 1.688377101452155581995385
2.535744804330175128370684 -0.01348751451472510187734599 1.694188550726077879815534
2.535744804330175128370684 0.02993335505625289300057901 1.694188550726077879815534
2.534320268156973199324966 -0.02693238369210799315611737 1.679098319250354132137204
2.536140064477827138489374 -0.03855528223995233205734223 1.668243101857609822502582
2.535820753839045593736046 -0.03837710145215567775212051 1.690042627036997036071853
2.535820753839045593736046 0.0383771014521556638743327 1.690042627036996814027248
2.534474538892986128502116 0.02693238369210796540054176 1.666577576272768368426114
2.536050974083929432367768 0.0383771014521556569354388 1.673375960370330206572476
2.534563629286884722802142 -0.01666666666666668378260496 1.661444717760047762311615
2.536294335213840511755734 -0.002761356999516476930234266 1.655722358880023836746886
2.536294335213840511755734 0.03057197633381685333842093 1.655722358880023836746886
3.341968455341381982748317 0.0004028462394606845695457786 1.666566301111682690816451
3.345984227670690813738474 0.02570463491417542684080999 1.671085285235436757034222
3.345984227670690813738474 -0.02489894243525406225536756 1.671085285235436757034222
3.333663493218217865887709 -0.04196845534138141098345898 1.662550528782373193692479
3.333663493218217865887709 0.04196845534138141792235288 1.662550528782373193692479
3.329647720888909034897551 -0.0166666666666666664353702 1.658031544658618461340893
3.321342758765744918036944 -0.01600634689689812290014359 1.654015772329309408306131
3.321342758765744918036944 0.01732698643643520997059682 1.654015772329309408306131
3.377130231595260045907025 -0.01904064328339056047512123 1.696170874878650369765865
3.369308803479654557122558 0.006634439807243580795870219 1.69234174975730078394065
3.377130231595260045907025 0.03230952289787773074047905 1.696170874878650369765865
3.365479678358305193341948 -0.04234174975730081724734077 1.688038964665047325652836
3.365479678358305193341948 0.04234174975730081724734077 1.688038964665047325652836
3.353829125121349452598452 0.02607792933009481922690398 1.679907054451444281539807
3.357658250242699260468271 0.0004028462394606764922395936 1.684209839543697739827621
3.353829125121349452598452 -0.0252722368511734581109085 1.679907054451444281539807
2.545197802563849531765072 -0.00383771266559486835118209 1.711216674436686346894021
2.547598901281924899109299 0.02469342323158798049864693 1.715230052719146858208887
2.547598901281924899109299 -0.03236884856277772587462849 1.715230052719146858208887
2.54337702808397381204486 -0.04519780256384951094839053 1.708815575718611201594399
2.54337702808397336795565 0.04519780256384953176507224 1.708815575718610979549794
2.540975929365898000611423 -0.0166666666666666594964763 1.704802197436150468234928
2.539155154886022280891211 0.003420722834613426719535534 1.702401098718075100890701
2.539155154886022280891211 0.03675405616794676089131855 1.702401098718075100890701
2.568873697468749828232149 -0.02812603122434223501535655 1.746999728693091835651785
2.563937255694737071820555 -0.0007932405048249555621145412 1.743999457386183893348175
2.568873697468749828232149 0.02653955021469231456698878 1.746999728693091835651785
2.56093698438782890747234 -0.04399945738618393775709592 1.736747539026961106856106
2.56093698438782890747234 0.04399945738618394469598982 1.736747539026961106856106
2.553000271306908430801741 0.02349507805392240036845841 1.726495349360830378060427
2.556000542613816151060746 -0.003837712665594871820629042 1.733747267720053386597101
2.553000271306908430801741 -0.03117050338511215268333387 1.726495349360830378060427
3.396759134635619847841781 -0.009270868713875737854301917 1.706938764340775849248644
3.39837956731780943542276 0.02082159925507720207860096 1.709016230634980981761828
3.39837956731780943542276 -0.03936333668282866737886394 1.709016230634980981761828
3.393363453888098124622275 -0.04675913463561960636827308 1.70531833165858559553385
3.393363453888098124622275 0.04675913463561960636827308 1.70531833165858559553385
3.391743021205908092952086 -0.01666666666666667337426411 1.703240865364380240976061
3.388347340458386813821789 0.00339357444286318438858574 1.701620432682189987261268
3.388347340458386813821789 0.03672690777619652680030526 1.701620432682189987261268
3.437016691087883657473867 -0.005280600700969213974478311 1.742297291788853286220728
3.430062407860662077041525 0.01264731621007087782049272 1.734594583577706794486062
3.437016691087884101563077 0.03057523312111097915644287 1.742297291788853508265333
3.422359699649515363262253 -0.03459458357770676950604383 1.729328524098582064993934
3.422359699649515363262253 0.03459458357770675562825602 1.729328524098582287038539
3.407702708211147069050639 0.008657048197164360012201278 1.716359756408311065811745
3.415405416422292894651491 -0.009270868713875741323748869 1.721625815887435573259268
3.40770270821114618087222 -0.02719878562491583398608164 1.71635975640831084376714
2.593170822483895410215382 -0.0009782681883236999699493541 1.764673376755276024141494
2.596585411241947305427402 0.02552588762890518198078738 1.769102987236395252423904
2.596585411241947305427402 -0.02748242400555258105332435 1.769102987236395030379299
2.587855457656202062821649 -0.04317082248389554621770259 1.761258787997223684840264
2.587855457656202062821649 0.04317082248389554621770259 1.761258787997223684840264
2.584440868898149723520419 -0.01666666666666666296592325 1.75682917751610423451325
2.579125504070456376126685 -0.007622418020929410710506691 1.75341458875805189521202
2.579125504070456376126685 0.02571091531240392302759545 1.75341458875805189521202
2.625360527392046616768084 -0.02079747330473779090564967 1.796158000696784329264233
2.618443262650846481420785 0.004851861422164397037726236 1.792316001393568614119545
2.625360527392046172678874 0.03050119614906659018527257 1.796158000696784329264233
2.614601263347630766276097 -0.04231600139356885004193742 1.787335533269289067348495
2.614601263347631210365307 0.04231600139356885004193742 1.787335533269289067348495
2.60384199930321535987332 0.02467106653857848580502221 1.778513065841793805432758
2.607683998606431075018008 -0.0009782681883237012709919611 1.783493533966073574248412
2.60384199930321535987332 -0.02662760291522588834700613 1.778513065841793805432758
3.448465259780732594663277 -0.007066859156825325283257655 1.756334643974187814663424
3.449232629890365942060271 0.02473173395724097972658839 1.760367177619474476912842
3.449232629890365942060271 -0.0388654522708916233542098 1.760367177619474698957447
3.447222954662068516995532 -0.0484652597807329679757693 1.755567273864553801132615
3.447222954662068516995532 0.0484652597807329679757693 1.755567273864553801132615
3.446455584552435169598539 -0.0166666666666666664353702 1.751534740219266916838592
3.445213279433770203752374 0.01111257599080385863321574 1.750767370109633347396993
3.445213279433770203752374 0.04444590932413718109561529 1.750767370109633347396993
3.461179320025796091186976 -0.03557306542818214345480499 1.796752385453978639873185
3.460461081831929242014212 -0.008734961186891303935864173 1.793504770907957013292844
3.461179320025796091186976 0.01810314305439953211362969 1.796752385453978639873185
3.457213467285908059523081 -0.04350477090795749901541711 1.784885622542232486154035
3.457213467285908059523081 0.04350477090795751289320492 1.784885622542232486154035