# geometry NO_DATA 896
#  x  y  z
2.843410332320531086480742 0.01028863554490782629413648 1.316878303224375823532455
2.836820664641063416411271 -0.01666666666666663521034764 1.323554650092985784937127
2.843410332320531086480742 -0.0230446977884255013724335 1.316878303224375823532455
2.823334483074943612734842 -0.01030569646557307969536588 1.336820664641063860500481
2.816437969188291923217093 -0.03045969443997011832925281 1.343410332320531752614556
2.816437969188291479127884 0.00984830150882393291766892 1.343410332320531974659161
2.830265136966389150074974 -0.03682066464106367731368152 1.316999122418311074511621
2.816778955400268902309335 -0.03682066464106368425257543 1.330265136966389150074974
2.816778955400269346398545 0.03682066464106371200815104 1.330265136966389150074974
2.830265136966389150074974 0.03682066464106371200815104 1.316999122418311296556226
2.892197742536676940972029 0.00315858222237862511921902 1.310960839685701539991669
2.88439548507335352667269 -0.01666666666666668031315801 1.318777033647866137044957
2.892197742536676940972029 -0.0301747511109547172925005 1.310960839685701762036274
2.874542686921398360055946 -0.003038929637243641644628322 1.327581616558642263470347
2.87249214623276616364933 0.001062151740020609138118179 1.328570005507253792842448
2.876740537505062533796263 -0.03439548507335396521078508 1.31112208607957558825774
2.865678277718054278722093 -0.02076774804393092394017017 1.322117859473887380161727
2.860073870838395482252281 -0.03439548507335395827189117 1.313474522956984857913199
2.866887739353106923090309 0.02076774804393090312348846 1.319926668990351270593919
2.858023330149763285845665 0.03637226297057695456604876 1.314462911905596165240695
2.876740537505062533796263 0.03439548507335395133299727 1.31112208607957514416853
2.85681386851471064147745 0.009840233874421068852034189 1.316654102389132496853108
2.863627737029422082315477 -0.009865362429489226217538267 1.323106248422498687489224
2.85681386851471064147745 -0.02957095873339951608294029 1.316654102389132496853108
2.941952448183354995592254 0.002289503224413408453280505 1.310337055041057574555907
2.933904896366711145816453 -0.01666666666666667684371106 1.318097199795562612933963
2.941952448183354995592254 -0.0310438301089199300553112 1.310337055041057574555907
2.925277575652249772986124 -0.0005879747622563537452766713 1.325865550414506710552587
2.924697806754432694020807 0.0005715630333783499727323685 1.325873756278945769793154
2.926305553423749650221453 -0.03390489636671170647908014 1.310497856852601561428173
2.916658460802227459396363 -0.01782620446230138294696488 1.318294650805662993064971
2.90963888675708348685589 -0.03390489636671171341797404 1.310687101998263104363218
2.917678232709288721480334 0.01782620446230136559973012 1.318266207471545437002192
2.909059117859266407890573 0.0339213080955896723045484 1.31069530786270194155918
2.926305553423750538399872 0.03390489636671169954018623 1.310497856852601561428173
2.908039345952205145806602 0.002684405244614340886599724 1.310723751196819497621959
2.916078691904410380431045 -0.01457023618430867278883412 1.318302856670102052305538
2.908039345952205145806602 -0.03182487761323167518856536 1.310723751196819719666564
2.992133020697231415852002 0.004885238910665562137025653 1.312752218213433907934018
2.984266041394462831704004 -0.01666666666666663174090068 1.319575640152564677265445
2.992133020697231415852002 -0.02844809442266777593788518 1.312752218213433907934018
2.975740927094984833445324 -0.0003835619322886102801686836 1.326124489027274755414965
2.975082792098275863423851 0.0009327080611302720428851254 1.325849915962853842188451
2.977471304741167834606586 -0.03426604139446353530784606 1.312780903499269458123422
2.966941239731086810138549 -0.01798293666008551200397036 1.318183771758893785275291
2.960804638074501227151814 -0.03426604139446354224673996 1.31166360817001903527057
2.968946190441689836347905 0.01798293666008558486235636 1.319329752373979314228336
2.960146503077791813041131 0.03371689526562202110504529 1.311389035105598566133267
2.977471304741167834606586 0.03426604139446357000231558 1.312780903499269458123422
2.958141552367188342742566 0.002101502123323731319182173 1.310243054490512815135617
2.966283104734377396027867 -0.01494872647563158171712949 1.317909198694472872048777
2.958141552367188342742566 -0.03199895507458692944791068 1.310243054490512593091012
3.048483055528486751484252 0.04346618663918079550345652 1.344983131110693008736234
3.046966111056975456961027 -0.01666666666666666296592325 1.345216148848078718813781
3.048483055528486751484252 0.01013285330584747304105697 1.344983131110692564647024
3.037978675130755590316767 -0.001308205185774030058359907 1.33928688031653031487167
3.030508183676046574106522 0.01363277772364316665909545 1.333124594047595756762803
3.046424652291897849920588 -0.04696611105697643534506724 1.344674690083000889728737
3.02282895293560027738522 -0.03160764957608380720799346 1.326113423546142922049285
3.029757985625231686555026 -0.04696611105697644228396115 1.331734251049999873117713
3.037437216365677983276328 0.03160764957608386271914469 1.338745421551452707831231
3.022287494170522670344781 0.0346415385191074232107411 1.325571964781065315008846
3.046424652291897849920588 0.04696611105697643534506724 1.344674690083001111773342
3.007679230740445852632092 0.005260736035309411876004226 1.312939966775755751271504
3.015358461480892149353394 -0.01271413581713128765349197 1.319951137277208363940417
3.007679230740445852632092 -0.03068900766957204442886287 1.312939966775755751271504
3.053889872107430125680594 -0.04529537910048558879694269 1.349185251207915658966385
3.053167059241840952665825 -0.01359154335132054837453897 1.348370502415831673204138
3.053889872107429681591384 0.01811229239784448857841781 1.349185251207916103055595
3.052352310449756522814369 -0.04837050241583169818415655 1.347435288999017766187194
3.052352310449756522814369 0.04837050241583169818415655 1.347435288999018432321009
3.050814748792083364037353 0.04487057799803606528143973 1.345685326790120317497212
3.05162949758416779388881 0.01316674224887102659375948 1.346620540206934002469552
3.050814748792083364037353 -0.01853709350029401209392077 1.345685326790120095452608
2.792488287044697869987431 0.004576065813781087475431431 1.362087778769083046270794
2.784976574089395917610545 -0.0166666666666666664353702 1.36977631995158866118345
2.792488287044698314076641 -0.02875726751955224105850029 1.362087778769083046270794
2.769300269825618165953074 -0.01468594186088783594412721 1.384976574089396450517597
2.761135678517143254850907 -0.03299584928361735253199427 1.392488287044697958805273
2.761135678517143254850907 0.003623965561841691052080705 1.392488287044698402894483
2.777471518963416485803464 -0.03497657408939618822740769 1.362271264825608785287159
2.761795214699638734145992 -0.03497657408939618822740769 1.377471518963416352576701
2.761795214699638734145992 0.0349765740893961951663016 1.377471518963416352576701
2.777471518963416485803464 0.03497657408939618822740769 1.362271264825608785287159
2.827202377542216371608674 0.000249226013313345179378544 1.373046848471095815469312
2.826288108281092892326569 -0.002077764535560556145854516 1.374210343745532636461348
2.824790449885976606481108 -0.0009175522546727645119279959 1.375708002140649366396019
2.824207060751984244006962 0.0002492260133133419809821352 1.376042165261329275338653
2.818238843720483721710934 -0.01899365721554056515851805 1.366161079184923465845714
2.812961382481040661929228 -0.03541109786889388294506276 1.357703132844933380241059
2.816332503545987187010269 -0.01783344493465277222354892 1.368716468329518765045805
2.80886662811937037886878 -0.033582559346646674580672 1.360333040648229685487536
2.816741185325366991776264 0.01783344493465276875410197 1.367658737580040195780384
2.808283238985377572305424 0.03425088558800609001009363 1.36066720376890959443017
2.821010647041649832544863 0.01899365721554056515851805 1.365752397405542994945904
2.812047113219917182647123 0.033582559346646674580672 1.358866628119370645322306
2.821924916302773755916178 -0.01666666666666666296592325 1.364588902131105729864657
2.815733185802206328673947 -0.02489459859667921340364849 1.35729445106555290934125
2.815733185802206328673947 0.008438734736654110793474537 1.35729445106555290934125
2.807874557205997323450219 0.003850377312390994462287797 1.361724934518387941650985
2.815749114411993936357703 -0.01373384160894843344924432 1.369050631450198451943834
2.807874557205997323450219 -0.03131806053028786396286165 1.361724934518387941650985
3.090009865803772903802837 -0.002471403638675440279925954 1.392481269442448876816343
3.081283028738212692587695 0.01582446857955598779055251 1.384962538884897842450528
3.090009865803772903802837 0.0341203407977874462186918 1.392481269442448876816343
3.057649766721646678035995 -0.04833564256350193766298418 1.356112205063974229801715
3.063630935621524997714005 -0.03329818144840006322038306 1.365260141173090246979882
3.079044324526386766649466 -0.03496253888489812139406254 1.381094629121507377789158
3.063630935621524997714005 0.03329818144840002852591354 1.365260141173090246979882
3.079044324526386766649466 0.03496253888489809363848693 1.381094629121507377789158
3.057649766721646233946785 0.04833564256350193072409027 1.35611220506397445184632
3.053907302033594284296214 -0.04526051924815582827577032 1.350832178718248899329524
3.053201919094170158075485 -0.01359154335132056225232677 1.35166435743649793188581
3.053907302033594284296214 0.01807743254551471417945763 1.350832178718249121374129
3.059183087994047589575075 0.001629205551564755997256961 1.360812293545613949063977
3.065869639833350479563023 -0.01500230923016863948671329 1.369128050936480267552042
2.693934850480485643231532 0.01357357989140765830438085 1.419638729410921840212723
2.68786970096097110882738 -0.01666666666666664908813544 1.42572164042618898527337
2.693934850480485643231532 -0.01975975344192567456635956 1.419638729410921840212723
2.675473278638101248816383 -0.008126177979074191565223018 1.437869700960970442693565
2.669142005834744146852699 -0.029329212273378403585955 1.443934850480484977097717
2.669142005834745035031119 0.01307685631523000137355073 1.443934850480485199142322
2.6818077582678689907425 -0.03786970096097086457831438 1.41965969773308686718849
2.669411335944998686642293 -0.03786970096097086457831438 1.431807758267868324608685
2.669411335944998686642293 0.03786970096097087845610218 1.4318077582678689907425
2.681807758267869434831709 0.03786970096097087845610218 1.419659697733087089233095
2.742057344873846336241741 0.001719734098325561774678327 1.409662389224478840077381
2.734114689747692672483481 -0.01666666666666666296592325 1.417917211923009235263748
2.742057344873846336241741 -0.0316135992350077693613386 1.409662389224478840077381
2.723552993091153950899752 -0.004456726646412177521294762 1.428009719737565408337332
2.720933951560768448985073 0.0007813564143598170520094159 1.429847404853591630313758
2.726186208247288078609927 -0.03411468974769314710382417 1.409988730422603753211774
2.714828981550641007203239 -0.02190474972743865905711047 1.423804314328937614675397
2.709519541580621027065945 -0.03411468974769314710382417 1.414038147712505910646996
2.715624511590748468847778 0.02190474972743865905711047 1.420081238237160370374568
2.706900500050235525151265 0.03779005997974550778994995 1.415875832828532132623423
2.726186208247288078609927 0.03411468974769314710382417 1.409988730422603753211774
2.706104970010127619417517 0.01349393891018229110767557 1.419598908920309376924251
2.71220994002025506119935 -0.007629454402896553716351136 1.425641999444963836651823
2.706104970010127619417517 -0.02875284771597539507093089 1.419598908920309376924251
2.755018663556524138869008 -0.04232358859842580423027414 1.404028301153634306075446
2.754028301153633950804078 -0.04232358859842580423027414 1.404497489995617520719406
2.754028301153633950804078 0.04232358859842579035248633 1.404497489995617520719406
2.755018663556524138869008 0.04232358859842579035248633 1.404028301153634306075446
2.755818930506566122318191 -0.04034286379264696853486072 1.403838205700786989638118
2.75866677380446390088764 -0.01468594186088784982191502 1.407676411401574512183288
2.755818930506566122318191 0.01097098007087128970771239 1.403838205700786989638118
2.75767641140157415691192 -0.01572828898270094144518083 1.408145600243557282738038
2.75383820570078663436675 0.009928632949058201553893532 1.404776583384752974836829
2.75383820570078663436675 -0.0413852109144600549539561 1.404776583384752974836829
3.098412756979107118837646 -0.01607894180423264859913779 1.401881105452109199660526
3.099206378489553603827744 0.01566714850820804735831437 1.401381346372879921347021
3.099206378489553159738534 -0.047825032116673341087143 1.401381346372879921347021
3.09878527944599824195393 -0.04841275697910735892337541 1.401087483941663158759638
3.09878527944599824195393 0.04841275697910735892337541 1.401087483941662714670429
3.097991657935551756963832 -0.01666666666666666296592325 1.401587243020892437073144
3.098364180402442435990906 0.01423722555866338557173378 1.400793621510445952083046
3.098364180402442435990906 0.04757055889199671150358029 1.400793621510445952083046
3.146861121774847447341017 0.03178583745286435446875117 1.434924715678016049480448
3.143722243549696315767505 -0.01666666666666664561868849 1.437754040501280083930169
3.146861121774847447341017 -0.001547495880468981871436185 1.434924715678016271525053
3.134776931980268077637675 -0.001223956472188378026902389 1.436000888452456880628461
3.128970498635992747438195 0.01038891021636286111917702 1.431418411580369642877031
3.13473772392451843771255 -0.04372224354969614368293662 1.428769520876102427919818
3.121249143538753489934834 -0.0282795333552178784763953 1.422766962442159055513002
3.118071057257851386168568 -0.04372224354969614368293662 1.418364919689068637254081
3.125792412355090199582719 0.02827953335521792357920567 1.42701636882727922461811
3.112264623913575611879878 0.03455728980552175144680405 1.413782442816981177458047
3.13473772392451843771255 0.04372224354969617143851224 1.428769520876102205875213
3.107721355097238902231993 0.001811681334622436412296054 1.409533036431861008352939
3.115442710194478159735354 -0.01607894180423262431300913 1.418184485570071817761573
3.107721355097238902231993 -0.03396956494308771279388992 1.409533036431861230397544
3.165302328116650798506271 -0.03176090374312232067488537 1.447063231859772702847522
3.162056316268666122937248 -0.004301106690243164561160416 1.44412646371954567214857
3.165302328116650798506271 0.02315869036263597940950021 1.447063231859772702847522
3.159119548128439092238295 -0.04412646371954581647756299 1.441095028811356870690474
3.159119548128438204059876 0.0441264637195458303553508 1.441095028811356870690474
3.1529367681402264977919 0.03219005762271400644669583 1.435126825762941038533427
3.155873536280453528490852 0.004730260569834865078120423 1.438158260671129839991522
3.1529367681402264977919 -0.02272953648304429363768975 1.435126825762941038533427
2.642342999023363336874581 0.003878892730918348519253414 1.461535893707554212284094
2.634685998046727206656215 -0.01666666666666667337426411 1.469282445388822466725287
2.642342999023363336874581 -0.02945444060241498435148699 1.461535893707554212284094
2.618241683058300850461819 -0.01622196331018506756938002 1.484685998046726851384847
2.609454369046511068575001 -0.03424129469024542182786774 1.492342999023363425692423
2.60945436904651151266421 0.001797368069875300566895504 1.492342999023363425692423
2.627037354430697746465739 -0.03468599804672703457164573 1.461633801772793006534812
2.610593039442271390271344 -0.03468599804672703457164573 1.477037354430697391194371
2.610593039442271390271344 0.03468599804672702763275183 1.477037354430697391194371
2.627037354430697302376529 0.03468599804672703457164573 1.461633801772793006534812
2.678579617134048795890067 0.0003136014048894681391713157 1.471733984270840789321255
2.677025009620692230782879 -0.003422816431603730585875311 1.473602193189087472546817
2.674830626961882007464055 -0.0009659488860158554120877161 1.475796575847897473821035
2.674190851816429237430839 0.0003136014048894672718095777 1.476122749588460347780483
2.668950263059214567107347 -0.02040308450315986982248617 1.465527446627609808871284
2.664730373367232285630735 -0.03675614976493704610938096 1.457037312591831668129316
2.666340492926104310811297 -0.01794621695757199486553901 1.468569555820881333829675
2.658905521510078973079771 -0.03364693473822281261087497 1.46016863551884057415009
2.666755880400404343788523 0.0179462169575719809877512 1.467721829286420032190108
2.658265746364626203046555 0.0342992822193491711524338 1.460494809259404114243353
2.672805119928709949306267 0.02040308450315985247525141 1.465112059153309331804849
2.663175765853875276434337 0.03364693473822281261087497 1.458905521510078573399483
2.674359727442066958502664 -0.01666666666666667337426411 1.463243850235062648579287
2.668585230236728111918865 -0.02137002821413716557863438 1.456621925117531191062881
2.668585230236728111918865 0.01196330511919616382265907 1.456621925117531191062881
2.657850358890325725980119 0.003492176903540487268445824 1.461342535793865637927524
2.665700717780651096688871 -0.01414043864914202482119254 1.468895729561444429833728
2.657850358890325725980119 -0.03177305420182452433408571 1.461342535793865415882919
3.193360829854566151908557 0.01181139835754879338636236 1.468450568502982722662864
3.18672165970913212618143 -0.0166666666666666664353702 1.474266529033340322740742
3.193360829854566151908557 -0.02152193497578454642327195 1.468450568502982722662864
3.178086563033059697147564 -0.00060352668547749828507204 1.47869008971853777012484
3.176090636502421293840825 0.003388326375798693911034487 1.477297689873377173341851
3.169865824781125773768053 -0.02941056316576859397393662 1.463683044792914333953604
3.182876943176110806632551 -0.03672165970913202764913663 1.464239032512107741013097
3.171714614783508245920984 -0.01334742318457942528153737 1.472318141468986540942865
3.171714614783508245920984 0.01334742318457943568987822 1.472318141468986540942865
3.169865824781125773768053 0.02941056316576861132117138 1.463683044792914333953604
3.182876943176110806632551 0.03672165970913203458803054 1.464239032512107741013097
3.166021108248104898308384 -0.03032334348021308370602078 1.453655548271681752225959
3.163493876531575210719893 -0.004301106690243174102139534 1.457311096543363326816234
3.166021108248104898308384 0.02172113009972673203229476 1.453655548271681752225959
3.165342666533958126962034 0.0006035266854775104281363718 1.4659461932194357558501
3.169718688252870286703455 -0.009355570123303232760170189 1.470925741623825944159876
3.232674504696098516376424 -0.01121624858130183290116921 1.493890753277399952025917
3.225501122431948974877969 0.009898591306831794334186725 1.487781506554799904051833
3.232674504696098516376424 0.03101343119496541636537223 1.493890753277399952025917
3.219391875709349370993095 -0.03778150655480028846655571 1.481435622601608326220912
3.219391875709349370993095 0.03778150655480029540544962 1.481435622601608326220912
3.206109246722600225609767 0.01287124520321706114267535 1.468980491925816922460513
3.212218493445199829494641 -0.008243594684916562623233638 1.475326375879008722336039
3.206109246722599781520557 -0.02935843457305019332803653 1.468980491925816700415908
2.544021157780953945604097 0.01405347323774673064245011 1.52003231545679229341772
2.538042315561908068843877 -0.01666666666666667337426411 1.526047894399827242750689
2.544021157780953945604097 -0.01927986009558660396301377 1.52003231545679229341772
2.525943545423443126196617 -0.007530873610263754021343363 1.538042315561908068843877
2.519823617504023616220366 -0.02890652250550549556828983 1.544021157780953945604097
2.519823617504023616220366 0.01384477528497800313811439 1.544021157780953945604097
2.532067558278251695469407 -0.03804231556190841578857231 1.520073137116170425287009
2.519968788139785864643727 -0.03804231556190841578857231 1.532067558278251251380198
2.519968788139786752822147 0.03804231556190841578857231 1.532067558278251695469407
2.532067558278251251380198 0.03804231556190841578857231 1.520073137116170869376219
2.592024870061666597109706 0.0009532278093687728080102284 1.508928357747701953783803
2.584049740123332661312361 -0.01666666666666667684371106 1.517501483966350983578764
2.592024870061666597109706 -0.03238010552396455854484714 1.508928357747701953783803
2.573441013260892251679479 -0.004550787058214355793039907 1.527991800319107085215364
2.570807416336784889665523 0.0007164067899999437697214355 1.52990899045321437910161
2.57609999637946396333632 -0.03404974012333328997614856 1.509551740222482063558118
2.564749476532559135932843 -0.02193386051488097412964784 1.523972509095359528785707
2.559433329712797355881548 -0.03404974012333328997614856 1.514105575217383314878816
2.565491269517023553703439 0.02193386051488096025186003 1.520042056575238165194719
2.556799732788690437956802 0.03788412039154767652071598 1.516022765351490608765062
2.57609999637946396333632 0.03404974012333328303725466 1.509551740222481841513513
2.556057939804226020186206 0.01389527806738599137459378 1.51995321787161197235605
2.562115879608452218008097 -0.007322175657495021312837213 1.525889699229466822671952
2.556057939804225576096997 -0.02853962938237603053082125 1.51995321787161197235605
2.600777830465102358203922 -0.04898363127306948339168002 1.500555478786862018125703
2.600555478786861662854335 -0.04898363127306948339168002 1.500673889296546104077379
2.600555478786861662854335 0.04898363127306948339168002 1.500673889296546104077379
2.600777830465102358203922 0.04898363127306948339168002 1.500555478786862018125703
2.600952887719946815536787 -0.04853892791658787064790204 1.500508184363465113975167
2.601238720405171012117762 -0.01622196331018505716103917 1.501016368726930227950334
2.600952887719946815536787 0.0160950012962177563258237 1.500508184363465113975167
2.601016368726930316768176 -0.01642984564729783880654423 1.501134779236614757991219
2.600508184363464980748404 0.01588711895910497468031863 1.500745005382833952012334
2.600508184363464980748404 -0.0487468102537006522934071 1.500745005382833952012334
3.236625723489408024136083 -0.01368808553225394492036671 1.514863567077797679161222
3.243312861744704012068041 0.006270971290487779847833139 1.509665719389708282704987
3.243312861744704012068041 -0.03364714235499566274967265 1.509665719389708282704987
3.239928824064786994085807 -0.0366257234894083877341231 1.508176428822502135318473
3.239928824064786994085807 0.0366257234894083877341231 1.508176428822502135318473
3.233241685809491006153849 -0.0166666666666666664353702 1.513374276510591531774708
3.236544786384869532014363 -0.003475685203759818105162527 1.506687138255295765887354
3.236544786384869532014363 0.02985764812957351216349267 1.506687138255295765887354
3.290348980172803194932385 -0.002309860347790443531323934 1.542658840520593432898977
3.281186229305511403708806 0.01634115402672996555932805 1.535317681041187043433638
3.290348980172803194932385 0.03499216840125038419095915 1.542658840520593432898977
3.273845069826104570154257 -0.03531768104118708506700131 1.527481464421132972830719
3.273845069826104570154257 0.0353176810411870711892135 1.527481464421132972830719
3.257341159479406389465339 0.004962928842266458098753112 1.512304088321672512762461
3.264682318958812778930678 -0.01368808553225395185926061 1.52014030494172658336538
3.257341159479406833554549 -0.03233909990677436008255086 1.512304088321672956851671
2.493275895331208413807644 0.009459593316331513582206902 1.566183697985123135509866
2.486551790662416827615289 -0.0166666666666666664353702 1.573005691989374010830716
2.493275895331208857896854 -0.02387374001700182796215088 1.566183697985123135509866
2.472941680955757615123503 -0.01055355274665133527567384 1.586551790662416694388526
2.466055675917890432913282 -0.03043867674240118004203026 1.593275895331208502625486
2.466055675917890432913282 0.009331571249098506021235622 1.593275895331208502625486
2.479838025181298366561577 -0.03655179066241651120172662 1.566291926508255549777004
2.466227915474639154069791 -0.03655179066241651120172662 1.57983802518129801129021
2.466227915474639154069791 0.03655179066241651814062052 1.57983802518129801129021
2.479838025181297922472368 0.03655179066241651120172662 1.566291926508255771821609
2.529374983155067813100914 0.0004831196662202999090804378 1.571108136511152553183024
2.527549831327198681663049 -0.004133423321957795278092096 1.573416408005241517997774
2.524087125176420975947167 -0.002791988979597528983817023 1.576879114156019001669051
2.52244957085351240166915 0.0004831196662203017522241311 1.578033548812707742570183
2.519525700581185745363655 -0.02128320965484473137330212 1.565392277259228137609171
2.515518703942943634643825 -0.03746675665529116544538724 1.556817384092784806171039
2.515512232009978532687455 -0.0199417753124844672474314 1.571424788983200038217092
2.509125655586873726576869 -0.03381645299955357564236635 1.562246223580497694882752
2.516062994430408039647773 0.01994177531248453316692348 1.568854983410005843325052
2.507488101263964708209642 0.03612532231293093254453908 1.563400658237186435783883
2.523542834688957015032429 0.02128320965484480076224116 1.564841514838797964515038
2.51369355211507539138438 0.03381645299955360339794197 1.559125655586873548941185
2.525367986516825702381084 -0.01666666666666663521034764 1.562533243344708999700288
2.519535838050714904312599 -0.02006411695497254538134158 1.556266621672354411032302
2.519535838050714904312599 0.01326921637836078748939883 1.556266621672354411032302
2.506937338843534313070904 0.009033124966845936659742833 1.565970463810380630675922
2.513874677687069070231018 -0.01042553067941829648968 1.572579223639888557073618
2.506937338843535201249324 -0.02988418632568257127246625 1.565970463810380630675922
3.29954236983946191941186 -0.01651814146017331619287205 1.550531892763784336253252
3.299771184919731314977298 0.01635756171262226638107862 1.550377340286761995713505
3.299771184919731314977298 -0.04939384463296889876682272 1.550377340286761995713505
3.299608428599763332300654 -0.04954236983946225247876782 1.550303077683515384777024
3.299608428599762888211444 0.04954236983946225247876782 1.550303077683515384777024
3.299379613519493936735216 -0.01666666666666666990481716 1.550457630160537725316772
3.2994456722797949055348 0.01588352386619221873198526 1.550228815080268773840544
3.2994456722797949055348 0.04921685719952555160272567 1.550228815080268773840544
3.34401541713348970930042 0.01531378710554215372141584 1.57129836997205263315891
3.338030834266979773872208 -0.01666666666666667684371106 1.576672310686261013756848
3.34401541713348970930042 -0.01801954622779118261877151 1.5712983699720521890697
3.329293069694737816632824 -0.0008088624778169091217999709 1.580101932172554679567611
3.326539887989006238910861 0.004697500933646263018839129 1.57815761294464018682504
3.327903601863699378782258 -0.03803083426697960456319692 1.566545078282980174577688
3.318610985894581588695473 -0.02217303007812983922653061 1.569494110975645284611346
3.311236935197032327238276 -0.03803083426697961150209082 1.561311197800279160219361
3.319165837291457421542873 0.0221730300781298253487428 1.569974699769274062433055
3.308483753491300749516313 0.03414219581115023049999735 1.559366878572364445432186
3.327903601863699378782258 0.03803083426697959762430301 1.566545078282980174577688
3.307928902094424916668913 0.0009573876843102489559572676 1.558886289778735001476662
3.315857804188850010973511 -0.01651814146017331619287205 1.567549791747730347779566
3.307928902094424916668913 -0.03399367060465688372694615 1.558886289778735445565871
3.379843832618148358193366 -0.01456450879994775939041407 1.594408341418096064501242
3.373309404181930037935899 0.007585507369577340966437795 1.588816682836191818140037
3.379843832618148358193366 0.0297355235391024604052479 1.594408341418096286545847
3.367717745600026013619299 -0.03881668283619178760890378 1.583049817837377304385882
3.367717745600026013619299 0.03881668283619177373111597 1.583049817837377526430487
3.355591658581904113134442 0.01609963567475432635878185 1.571691294256658766315127
3.361183317163807693361832 -0.006050380494770793080028248 1.577458159255473280069282
3.355591658581904113134442 -0.02820039666429589864105054 1.571691294256658544270522
2.477896365306240245018898 0.0007522464777947928055504279 1.622855881171554770503462
2.477012367511465917857549 -0.002520242067342987751787931 1.62449212544412358028012
2.468121480468788764284227 -0.01526153201801186756747519 1.634085579811128230431905
2.460114591220885493783044 -0.03268044516247333580727386 1.642042789905564292851636
2.460114591220885493783044 0.002157381126449623657409527 1.642042789905564292851636
2.469240164626469891118177 -0.01993915521180445599158659 1.616719922559126887406933
2.463587265014246963090727 -0.03585357540067630327529358 1.608010465986895898282683
2.460349277583792293455645 -0.03408557981112815549185058 1.626313376926131759603322
2.460349277583792293455645 0.03408557981112814161406277 1.626313376926131981647927
2.47135946789924343391931 0.01993915521180443170545793 1.615782668871892813200475
2.462703267219473080018588 0.03408557981112814855295667 1.609646710259465374193155
2.472243465694017316991449 -0.01666666666666668031315801 1.614146424599323781379212
2.46570656828702050589186 -0.02469997734597505212317259 1.607073212299662046120829
2.46570656828702050589186 0.00863335598735828421701477 1.607073212299662046120829
3.391769274660317634584317 0.003793852226206373412509265 1.612024577565888794339344
3.383538549320634913897266 -0.01666666666666667684371106 1.618666200773420715819384
3.391769274660317634584317 -0.02953948110712695251933724 1.612024577565888794339344
3.375180832739721470403538 -4.876649516014580989804045e-05 1.625229599234881749936221