/*--------------------------------*- C++ -*----------------------------------*\
| =========                 |                                                 |
| \\      /  F ield         | OpenFOAM: The Open Source CFD Toolbox           |
|  \\    /   O peration     | Version:  v2012                                 |
|   \\  /    A nd           | Website:  www.openfoam.com                      |
|    \\/     M anipulation  |                                                 |
\*---------------------------------------------------------------------------*/
FoamFile
{
    version     2.0;
    format      ascii;
    class       volScalarField;
    location    "2.1";
    object      alpha.water;
}
// * * * * * * * * * * * * * * * * * * * * * * * * * * * * * * * * * * * * * //

dimensions      [0 0 0 0 0 0 0];


internalField   nonuniform List<scalar> 
96000
(
0
0
0
0
0
0
0
0
0
0
0
0
0
0
0
0
0
0
0
0
0
0
0
0
0
0
0
0
0
0
0
0
0
0
0
0
0
0
0
0
0
0
0
0
0
0
0
0
0
0
0
0
0
0
0
0
0
0
0
0
0
0
0
0
0
0
0
0
0
0
0
0
0
0
0
0
0
0
0
0
0
0
0
0
0
0
0
0
0
0
0
0
0
0
0
0
0
0
0
0
0
0
0
0
0
0
0
0
0
0
0
0
0
0
0
0
0
0
0
0
0
0
0
0
0
0
0
0
0
0
0
0
0
0
0
0
0
0
0
0
0
0
0
0
0
0
0
0
0
0
0
0
0
0
0
0
0
0
0
0
0
0
0
0
0
0
0
0
0
0
0
0
0
0
0
0
0
0
0
0
0
0
0
0
0
0
0
0
0
0
0
0
0
0
0
0
0
0
0
0
0
0
0
0
0
0
0
0
0
0
0
0
0
0
0
0
0
0
0
0
0
0
0
0
0
0
0
0
0
0
0
0
0
0
0
0
0
0
0
0
0
0
0
0
0
0
0
0
0
0
0
0
0
0
0
0
0
0
0
0
0
0
0
0
0
0
0
0
0
0
0
0
0
0
0
0
0
0
0
0
0
0
0
0
0
0
0
0
0
0
0
0
0
0
0
0
0
0
0
0
0
0
0
0
0
0
0
0
0
0
0
0
0
0
0
0
0
0
0
0
0
0
0
0
0
0
0
0
0
0
0
0
0
0
0
0
0
0
0
0
0
0
0
0
0
0
0
0
0
0
0
0
0
0
0
0
0
0
0
0
0
0
0
0
0
0
0
0
0
0
0
0
0
0
0
0
0
0
0
0
0
0
0
0
0
0
0
0
0
0
0
0
0
0
0
0
0
0
0
0
0
0
0
0
0
0
0
0
0
0
0
0
0
0
0
0
0
0
0
0
0
0
0
0
0
0
0
0
0
0
0
0
0
0
0
0
0
0
0
0
0
0
0
0
0
0
0
0
0
0
0
0
0
0
0
0
0
0
0
0
0
0
0
0
0
0
0
0
0
0
0
0
0
0
0
0
0
0
0
0
0
0
0
0
0
0
0
0
0
0
0
0
0
0
0
0
0
0
0
0
0
0
0
0
0
0
0
0
0
0
0
0
0
0
0
0
0
0
0
0
0
0
0
0
0
0
0
0
0
0
0
0
0
0
0
0
0
0
0
0
0
0
0
0
0
0
0
0
0
0
0
0
0
0
0
0
0
0
0
0
0
0
0
0
0
0
0
0
0
0
0
0
0
0
0
0
0
0
0
0
0
0
0
0
0
0
0
0
0
0
0
0
0
0
0
0
0
0
0
0
0
0
0
0
0
0
0
0
0
0
0
0
0
0
0
0
0
0
0
0
0
0
0
0
0
0
0
0
0
0
0
0
0
0
0
0
0
0
0
0
0
0
0
0
0
0
0
0
0
0
0
0
0
0
0
0
0
0
0
0
0
0
0
0
0
0
0
0
0
0
0
0
0
0
0
0
0
0
0
0
0
0
0
0
0
0
0
0
0
0
0
0
0
0
0
0
0
0
0
0
0
0
0
0
0
0
0
0
0
0
0
0
0
0
0
0
0
0
0
0
0
0
0
0
0
0
0
0
0
0
0
0
0
0
0
0
0
0
0
0
0
0
0
0
0
0
0
0
0
0
0
0
0
0
0
0
0
0
0
0
0
0
0
0
0
0
0
0
0
0
0
0
0
0
0
0
0
0
0
0
0
0
0
0
0
0
0
0
0
0
0
0
0
0
0
0
0
0
0
0
0
0
0
0
0
0
0
0
0
0
0
0
0
0
0
0
0
0
0
0
0
0
0
0
0
0
0
0
0
0
0
0
0
0
0
0
0
0
0
0
0
0
0
0
0
0
0
0
0
0
0
0
0
0
0
0
0
0
0
0
0
0
0
0
0
0
0
0
0
0
0
0
0
0
0
0
0
0
0
0
0
0
0
0
0
0
0
0
0
0
0
0
0
0
0
0
0
0
0
0
0
0
0
0
0
0
0
0
0
0
0
0
0
0
0
0
0
0
0
0
0
0
0
0
0
0
0
0
0
0
0
0
0
0
0
0
0
0
0
0
0
0
0
0
0
0
0
0
0
0
0
0
0
0
0
0
0
0
0
0
0
0
0
0
0
0
0
0
0
0
0
0
0
0
0
0
0
0
0
0
0
0
0
0
0
0
0
0
0
0
0
0
0
0
0
0
0
0
0
0
0
0
0
0
0
0
0
0
0
0
0
0
0
0
0
0
0
0
0
0
0
0
0
0
0
0
0
0
0
0
0
0
0
0
0
0
0
0
0
0
0
0
0
0
0
0
0
0
0
0
0
0
0
0
0
0
0
0
0
0
0
0
0
0
0
0
0
0
0
0
0
0
0
0
0
0
0
0
0
0
0
0
0
0
0
0
0
0
0
0
0
0
0
0
0
0
0
0
0
0
0
0
0
0
0
0
0
0
0
0
0
0
0
0
0
0
0
0
0
0
0
0
0
0
0
0
0
0
0
0
0
0
0
0
0
0
0
0
0
0
0
0
0
0
0
0
0
0
0
0
0
0
0
0
0
0
0
0
0
0
0
0
0
0
0
0
0
0
0
0
0
0
0
0
0
0
0
0
0
0
0
0
0
0
0
0
0
0
0
0
0
0
0
0
0
0
0
0
0
0
0
0
0
0
0
0
0
0
0
0
0
0
0
0
0
0
0
0
0
0
0
0
0
0
0
0
0
0
0
0
0
0
0
0
0
0
0
0
0
0
0
0
0
0
0
0
0
0
0
0
0
0
0
0
0
0
0
0
0
0
0
0
0
0
0
0
0
0
0
0
0
0
0
0
0
0
0
0
0
0
0
0
0
0
0
0
0
0
0
0
0
0
0
0
0
0
0
0
0
0
0
0
0
0
0
0
0
0
0
0
0
0
0
0
0
0
0
0
0
0
0
0
0
0
0
0
0
0
0
0
0
0
0
0
0
0
0
0
0
0
0
0
0
0
0
0
0
0
0
0
0
0
0
0
0
0
0
0
0
0
0
0
0
0
0
0
0
0
0
0
0
0
0
0
0
0
0
0
0
0
0
0
0
0
0
0
0
0
0
0
0
0
0
0
0
0
0
0
0
0
0
0
0
0
0
0
0
0
0
0
0
0
0
0
0
0
0
0
0
0
0
0
0
0
0
0
0
0
0
0
0
0
0
0
0
0
0
0
0
0
0
0
0
0
0
0
0
0
0
0
0
0
0
0
0
0
0
0
0
0
0
0
0
0
0
0
0
0
0
0
0
0
0
0
0
0
0
0
0
0
0
0
0
0
0
0
0
0
0
0
0
0
0
0
0
0
0
0
0
0
0
0
0
0
0
0
0
0
0
0
0
0
0
0
0
0
0
0
0
0
0
0
0
0
0
0
0
0
0
0
0
0
0
0
0
0
0
0
0
0
0
0
0
0
0
0
0
0
0
0
0
0
0
0
0
0
0
0
0
0
0
0
0
0
0
0
0
0
0
0
0
0
0
0
0
0
0
0
0
0
0
0
0
0
0
0
0
0
0
0
0
0
0
0
0
0
0
0
0
0
0
0
0
0
0
0
0
0
0
0
0
0
0
0
0
0
0
0
0
0
0
0
0
0
0
0
0
0
0
0
0
0
0
0
0
0
0
0
0
0
0
0
0
0
0
0
0
0
0
0
0
0
0
0
0
0
0
0
0
0
0
0
0
0
0
0
0
0
0
0
0
0
0
0
0
0
0
0
0
0
0
0
0
0
0
0
0
0
0
0
0
0
0
0
0
0
0
0
0
0
0
0
0
0
0
0
0
0
0
0
0
0
0
0
0
0
0
0
0
0
0
0
0
0
0
0
0
0
0
0
0
0
0
0
0
0
0
0
0
0
0
0
0
0
0
0
0
0
0
0
0
0
0
0
0
0
0
0
0
0
0
0
0
0
0
0
0
0
0
0
0
0
0
0
0
0
0
0
0
0
0
0
0
0
0
0
0
0
0
0
0
0
0
0
0
0
0
0
0
0
0
0
0
0
0
0
0
0
0
0
0
0
0
0
0
0
0
0
0
0
0
0
0
0
0
0
0
0
0
0
0
0
0
0
0
0
0
0
0
0
0
0
0
0
0
0
0
0
0
0
0
0
0
0
0
0
0
0
0
0
0
0
0
0
0
0
0
0
0
0
0
0
0
0
0
0
0
0
0
0
0
0
0
0
0
0
0
0
0
0
0
0
0
0
0
0
0
0
0
0
0
0
0
0
0
0
0
0
0
0
0
0
0
0
0
0
0
0
0
0
0
0
0
0
0
0
0
0
0
0
0
0
0
0
0
0
0
0
0
0
0
0
0
0
0
0
0
0
0
0
0
0
0
0
0
0
0
0
0
0
0
0
0
0
0
0
0
0
0
0
0
0
0
0
0
0
0
0
0
0
0
0
0
0
0
0
0
0
0
0
0
0
0
0
0
0
0
0
0
0
0
0
0
0
0
0
0
-2.543161590822076760179604e-56
-2.828800672745731405629908e-44
-1.309044158344138707026502e-42
-3.022499874562942612528873e-41
-4.642787565206216342765513e-40
-5.337598243313573461180638e-39
-4.898887972302021503069409e-38
-3.739069689773377255636145e-37
-2.441065498233387254462576e-36
-1.391556251856477441062291e-35
-7.036677686870820243874753e-35
-3.195771339211292010987522e-34
-1.316710021306298106816086e-33
-1.508328726494559597125174e-33
-1.724587172996355030260471e-33
-1.96806617476807667752977e-33
-2.241512934426767138001418e-33
-2.54783269248111401668122e-33
-2.890075837987114051641739e-33
-3.271419819143081558639529e-33
-3.695145184412416552970059e-33
-4.164605095754845891184442e-33
-4.683187689731064958754075e-33
-5.254270724052106199850237e-33
-5.881168041032203327443961e-33
-6.567067509615042735000219e-33
-7.314960278017608746243187e-33
-8.127561382628335859064596e-33
-9.007222017652215568096829e-33
-9.955834074606016641472422e-33
-1.09747279098619459898253e-32
-1.206456468834579918966539e-32
-1.322522507594989880156229e-32
-1.445569650279987188447927e-32
-1.575396168148821861793544e-32
-1.711689152246158356142953e-32
-1.854014602305569608954768e-32
-2.001808709393296735921621e-32
-2.154370760071638037172862e-32
-2.310858111089677217710685e-32
-2.470283691694469390202488e-32
-2.631516482644332417256057e-32
-2.793285394118834306656577e-32
-2.954186916577292159670313e-32
-3.112696847420693467006416e-32
-3.267186301127166591495181e-32
-3.415942091478096643086483e-32
-3.557191432994023101606099e-32
-3.689130747647246507989087e-32
-3.809958186793963692122678e-32
-3.917909293173873592884268e-32
-4.011295041426830481898318e-32
-4.088541316891293873415165e-32
-4.148228731539589652445377e-32
-4.189131543387256122214012e-32
-4.210254352200370028375913e-32
-4.210865199679820828872329e-32
-4.190523714910983349062242e-32
-4.149103021844142964955191e-32
-4.086804267984736948739098e-32
-4.004162841770205715271107e-32
-3.902045615627138786998899e-32
-3.781638873507091570342188e-32
-3.644426942697753331001695e-32
-3.492161933110817737314522e-32
-3.326825373382253540092168e-32
-3.15058290055723757233327e-32
-2.965733487078268482645162e-32
-2.774654954625978963926368e-32
-2.579747711242786349421301e-32
-2.383378742502018708940696e-32
-2.187827881175605258382347e-32
-1.99523827116028241134388e-32
-2.705917072591440240899518e-32
-3.465092108828313347516388e-32
-4.20625067944916668983111e-32
-4.856455910889793253758109e-32
-5.348865248147933535506243e-32
-5.634306848154957093551664e-32
-5.689133692051060945372995e-32
-5.517738820215456606091334e-32
-5.149642096785380475402899e-32
-4.632418561642762210338526e-32
-4.022541946530747492618953e-32
-3.376329567586773967649104e-32
-2.742708216489835548081764e-32
-2.158737440379184660018944e-32
-1.64801622430340105197637e-32
-1.221479309142287284403087e-32
-8.79760726910266066396748e-33
-6.16254754337267638266014e-33
-4.201574582981987935632281e-33
-2.790208253196995185179603e-33
-1.806053215678608042846003e-33
-1.14017711333236147167536e-33
-7.024637168906727889957672e-34
-4.226025893748189451637534e-34
-2.483877522503580373576432e-34
-1.427047442587791529673527e-34
-8.017992996102886998992016e-35
-4.407680039652825090281269e-35
-2.371700140170935572744999e-35
-1.249665752864225796260961e-35
-6.45034389584328186691462e-36
-3.262792282740073636519538e-36
-1.617963903248112851898725e-36
-7.868093346656313658574731e-37
-3.753474513996975415796647e-37
-1.757101098223539349445038e-37
-8.074018403476128238683012e-38
-3.64281855603042498858575e-38
-1.614211047628143465148248e-38
-7.027057954122414483820945e-39
-3.005995094807175973332114e-39
-1.263896229925031192186566e-39
-5.2245147629513563716027e-40
-2.123690111106675566042384e-40
-8.490684303692124325265501e-41
-3.339588704228476502293229e-41
-1.292501969488511779103564e-41
-4.923155592263457625018265e-42
-1.845921932530507488604192e-42
-6.814297380426767495099768e-43
-2.477107026072860497147119e-43
-8.868697763186399937279705e-44
-3.127803137496040888791657e-44
-1.086811536297172500542412e-44
-3.721113884012017136521728e-45
-1.255631232643469589222429e-45
-4.176247372157325402368518e-46
-1.369329263042864612991176e-46
-4.426779583904349922965095e-47
-1.411189177051378235537393e-47
-4.436670697084177424763378e-48
-1.375813042741308578336486e-48
-4.208680779604698356413901e-49
-1.27019217589248943715041e-49
-3.782516552561710721695676e-50
-1.111552178354474576679659e-50
-3.223775335646655014407919e-51
-9.228530202543725087896906e-52
-2.60782736258424355070603e-52
-7.275252991722335493712732e-53
-2.003934639423501096846258e-53
-5.45038591360580180168197e-54
-1.463929384271062059317478e-54
-3.88330944253641166477712e-55
-1.017446580215631026326361e-55
-2.633217233419367964672736e-56
-6.732306930233050314286602e-57
-1.700509152940148770589021e-57
-4.243914461904160589397719e-58
-1.046551588719036596107221e-58
-2.550315427016579753823989e-59
-6.141837948566304846077477e-60
-1.461857644045605789737777e-60
-3.439095945155790691357143e-61
-7.997335795063135060901074e-62
-1.838386034501586248886639e-62
-4.177785283065230745827315e-63
-9.386429170035687818053818e-64
-2.085094030112724447313041e-64
-4.579806055600345206988577e-65
-9.946933176037759509084178e-66
-2.136366034056351585408804e-66
-4.537633090077561760021936e-67
-9.531745786892329709104283e-68
-1.980278282430608264017516e-68
-4.069220748910849178812175e-69
-8.270795766674933432672606e-70
-1.662851025151863891592595e-70
-3.307101834236240761697339e-71
-6.506498693888920259585215e-72
-1.266395130899922282470218e-72
-2.438534709466678515255015e-73
-4.645594942204680792242164e-74
-8.756295659938058420671674e-75
-1.632973968500894275957492e-75
-3.013214382564542622534515e-76
-5.501535520151880489123752e-77
-9.939192905108241990250074e-78
-1.776809086039114662592274e-78
-3.14311953972361316588971e-79
-5.501972190333614425175925e-80
-9.530570264517038022392337e-81
-1.633678985383125722466668e-81
-2.771180601322282531600109e-82
-4.651731520419432422842876e-83
-7.727089860647244434705855e-84
-1.270184601681978142862727e-84
-2.066157446269670754462537e-85
-3.325827334762289396767441e-86
-5.297456680344560396779843e-87
-8.349408510579202427325031e-88
-1.302119627996219065347752e-88
-2.009259565032256950035269e-89
-3.067543264991339357184845e-90
-4.633298494376279318541789e-91
-6.923179489380767663029852e-92
-1.023297953687167525841164e-92
-1.496026041879511188273466e-93
-2.163061759925923364072188e-94
-3.092681652251342588900852e-95
-4.371917690459526254354958e-96
-6.109439282823019193767282e-97
-8.437841289579047905765455e-98
-1.151470468706841661056571e-98
-1.552156328490653653776789e-99
-2.065964687961033279293808e-100
-2.714099361460163522528576e-101
-3.517325643228399483725882e-102
-4.493630489803473787479967e-103
-5.65485892908232151566018e-104
-7.002124283327628935971057e-105
-8.519811065329853889599947e-106
-1.016803721092542959989621e-106
-1.187352220343324502610408e-107
-1.351892366012058417457901e-108
-1.493085853416004599890516e-109
-1.586701398676808378504962e-110
-1.600297023876338419623029e-111
-1.491959089166819065086074e-112
-1.209206713666785388352527e-113
-6.881907368279052509335687e-115
1.46668484038527188724452e-116
1.382453372796730647964394e-116
3.116785008199051116070599e-117
5.455994440746319796407247e-118
8.512335273778217461078882e-119
1.240019335982690074544129e-119
1.723131454652846026242183e-120
2.310914875363733133830042e-121
3.012249365749684374179771e-122
3.83387076016125731336689e-123
4.77968414297423551327423e-124
5.85011044201976445296896e-125
7.041512211753428654561966e-126
8.345745630004119356708529e-127
9.74988341618126308847343e-128
1.123614723189788388435719e-128
1.278207821204742533926412e-129
1.436096102902565346900026e-130
1.594250111261563293178145e-131
1.749373744812546880071043e-132
1.89801561023486752545994e-133
2.036695373949025570397535e-134
2.162038731797069511126152e-135
2.270913715948142386159059e-136
2.360560659832198344185694e-137
2.428708297716803801244308e-138
2.47366918930271779230062e-139
2.494408884863670630970882e-140
2.490584889653553957397212e-141
2.462553416212588209071958e-142
2.411343973100458896256824e-143
2.338603861923603749180072e-144
2.246516480960880303904261e-145
2.13769882451807471352127e-146
2.015084617675571441416571e-147
1.881800074412792361765883e-148
1.741039297697693537889807e-149
1.595945882929625034664535e-150
1.449506410607984024630107e-151
1.304460320148310386208526e-152
1.163229262851532052887765e-153
1.027867562789793967100835e-154
9.000339884663032428756459e-156
7.80983758100889194833993e-157
6.715786461147694397054283e-158
5.72312278650679263128134e-159
4.833472234331348163634326e-160
4.045602884108922410714173e-161
3.355925159560272124067079e-162
2.759006493989231387384322e-163
2.248073004428715789041828e-164
1.815475997936448139497546e-165
1.453107114949064004515525e-166
1.152751830416250344151256e-167
9.063764734854077336098809e-169
7.063485967441549064029573e-170
5.455942511517893490285939e-171
4.176984371973331082849094e-172
3.169567333916075386121825e-173
2.383869470527205180185978e-174
1.777097330968001448863947e-175
1.3130665156305456177331e-176
9.616325542321516253209917e-178
6.980367720682851975809937e-179
5.022195474672971868474655e-180
3.581411384067750695511898e-181
2.531389013197731328612028e-182
1.773397690808380196393437e-183
1.231385768155043308908304e-184
8.474629929918723887635535e-186
5.78074167247842410470623e-187
3.908227971533565095479764e-188
2.618826586194121686455793e-189
1.739245401617316901387478e-190
1.144824012085936934753491e-191
7.468554368015567833366381e-193
4.828922764883263780759323e-194
3.09439359207502052200871e-195
1.965204991379556354247451e-196
1.236922111032217267239639e-197
7.715675666430972934762353e-199
4.769769247063467844099047e-200
2.922180262188714185200432e-201
1.774177445034213478464083e-202
1.06748422923582157136702e-203
6.364934647627547036229118e-205
3.760866883265278781095553e-206
2.202098447273049403519188e-207
1.277712787316674586055805e-208
7.346326738816445382781428e-210
4.185431482680789690626063e-211
2.362846455988858598563147e-212
1.321746183807079004738675e-213
7.326047379252699680445301e-215
4.023389045125915971966732e-216
2.18930514815024342736198e-217
1.180330433895497277624867e-218
6.30485035353267524530313e-220
3.336648225088219302230685e-221
1.749447325113814743123376e-222
9.087328541860260920094605e-224
4.676342967898396362173821e-225
2.383970376500927536528149e-226
1.20395175655684103522461e-227
6.023101072403452821550654e-229
2.984852704547738933240949e-230
1.465230465208443313912636e-231
7.124552532108456021267373e-233
3.43135726556919071333972e-234
1.636887325315650441802995e-235
7.733991306013468515325721e-237
3.619160911183382072396216e-238
1.677329656697188563333891e-239
7.698781657703955083235665e-241
3.499492511232549590420821e-242
1.575265578503110152530836e-243
7.021889984661460915464897e-245
3.099498024827648220589159e-246
1.354724857681296686922221e-247
5.862977344344777746649206e-249
2.512334121097538591748006e-250
1.065891545081050093535235e-251
4.477227264309159581688128e-253
1.861870658770096293883008e-254
7.665095007553589216478473e-256
3.123894325810168482674084e-257
1.260284634638035427652525e-258
5.032883538356762430936138e-260
1.989404628731735708018775e-261
7.783395342698670876351094e-263
3.01395066992365510574383e-264
1.155061926228714400041654e-265
4.38083705822627518684636e-267
1.644265252915573110221533e-268
6.107021711690563011415481e-270
2.244446816094416582228297e-271
8.16188566491840806011799e-273
2.936646560582935235337888e-274
1.045372507424760730052517e-275
3.681514340841469268599192e-277
1.282612059834876289913084e-278
4.420327718564454159503485e-280
1.506886067584896553478132e-281
5.080999742288933559881523e-283
1.694479298194098221296712e-284
5.588776571306317617552696e-286
1.822909734607731363658391e-287
5.879705296207867212513763e-289
1.875259844426666873515969e-290
5.913653032900865113354731e-292
1.843788754776350292420901e-293
5.683283328371965799204138e-295
1.731775505097033524977643e-296
5.216254201112448668879702e-298
1.552998021667068504089278e-299
4.569803987108314760747871e-301
1.328946936708937812382562e-302
3.819173104356145121888015e-304
1.08455168317811790962274e-305
3.043107250639010767795967e-307
8.43599962189918281083929e-309
2.310327789533062847880654e-310
6.250188875512421256725785e-312
1.6701644101103002167603e-313
4.407954879066433417834511e-315
1.149196692226739461754699e-316
2.964393875047479265059413e-318
7.905050333459944706825101e-320
0
0
0
0
0
0
0
-6.410242822220563294587238e-42
-2.979237660952682562442883e-40
-6.908014987138474014263242e-39
-1.065499756643489110669042e-37
-1.229854479902328253725603e-36
-1.133127965427221210994393e-35
-8.680679223647973221808159e-35
-5.68732943598154166340355e-34
-3.253073287478208658375253e-33
-1.650234283681111921881585e-32
-7.517178360883433580256797e-32
-3.105865540275287169708893e-31
-1.173625278969451041614807e-30
-4.084304959359798044560152e-30
-4.561137878947022074069059e-30
-5.082824031522132705796968e-30
-5.651902330764992193674605e-30
-6.270790624835351561633368e-30
-6.941733099001196301875504e-30
-7.666742087917204820751894e-30
-8.447534582479550081428318e-30
-9.285463906689328179248227e-30
-1.018144725381607883356436e-29
-1.113589000585496999772936e-29
-1.214860801193263385769223e-29
-1.321874926453015230482712e-29
-1.434471668010970692723666e-29
-1.552409395421267388432138e-29
-1.675357670991935923800706e-29
-1.802891138070960416453339e-29
-1.934484445086049430611339e-29
-2.069508480411786883673854e-29
-2.207228198945297466421885e-29
-2.346802318622926534238634e-29
-2.487285152574784103788388e-29
-2.627630818918952197969916e-29
-2.766700034323603006985948e-29
-2.903269648750097473682409e-29
-3.036045017032509043208268e-29
-3.163675228507576673647019e-29
-3.284771129796507503411795e-29
-3.397925979788986325061304e-29
-3.501738472389084041717251e-29
-3.594837754920958713389297e-29
-3.675909962257355284806324e-29
-3.743725683369756580312926e-29
-3.797167683231654757503306e-29
-3.835258124265002791657031e-29
-3.857184473248931278037279e-29
-3.862323246991993272002348e-29
-3.850260747660220970627713e-29
-3.820809970054199007241572e-29
-3.774022930606871018711397e-29
-3.71019777208181494969158e-29
-3.629880137642987234043271e-29
-3.533858479859894205301888e-29
-3.423153168921346271845288e-29
-3.298999482479261432736367e-29
-3.162824787983926611153818e-29
-3.016220456591414242916958e-29
-2.860909264366955610399373e-29
-2.698709230029546092940848e-29
-2.531494997864995456168923e-29
-2.361157989947491739406398e-29
-2.189566615726793000406771e-29
-2.018527834276589693866017e-29
-1.849751313101374265887091e-29
-1.684817318813654221698592e-29
-1.525149314125065386060644e-29
-1.371992030591058660665201e-29
-1.226395548333123907807543e-29
-1.08920565554633169094135e-29
-9.610604962123993025900632e-30
-8.423932585532529664006236e-30
-1.019315187290471352620351e-29
-1.172493795910268404412041e-29
-1.285954901670655096473797e-29
-1.348348842659106861888202e-29
-1.354748708942283693369769e-29
-1.307089086424057040279655e-29
-1.213276245836739209663582e-29
-1.085330122987845529104226e-29
-9.370950683811386236842098e-30
-7.820569610069247607700786e-30
-6.316668651325501915911065e-30
-4.943673036828046361927357e-30
-3.753188692340584536160481e-30
-2.766825007835645914331775e-30
-1.982455906079773968442071e-30
-1.381806964239418591317665e-30
-9.377109250183131190567141e-31
-6.20013047585901114683093e-31
-3.997185264520503120975565e-31
-2.514324686064250274986025e-31
-1.544103604270606733051527e-31
-9.263554090899178184351072e-32
-5.432105040911688961709576e-32
-3.115138598476511146839848e-32
-1.747921399667788745733207e-32
-9.60077973434074365588675e-33
-5.164460508508068093793722e-33
-2.721828710076286720563684e-33
-1.406008605761057316786414e-33
-7.121502026838735040928049e-34
-3.538086265054651324374151e-34
-1.7247549568158053757304e-34
-8.252589645386181239429019e-35
-3.876964658980225016211111e-35
-1.78879538553538152142491e-35
-8.108102365044776941849217e-36
-3.611473223385302290413949e-36
-1.581130849151777126942114e-36
-6.805752272730395531393032e-37
-2.880788726619592731953898e-37
-1.199420061035585717044108e-37
-4.913030112249603783528146e-38
-1.980320623453947563314913e-38
-7.856257340096743316338948e-39
-3.068122842177620050289774e-39
-1.17973970593484600475122e-39
-4.46717137588815010661703e-40
-1.666041160617525816065262e-40
-6.120918624922011035517883e-41
-2.215612538346853040339944e-41
-7.902846570800503562577007e-42
-2.778112193476516189522135e-42
-9.626188497170662485540671e-43
-3.288191900943621068155981e-43
-1.107429618075779764208024e-43
-3.67779468965585566778657e-44
-1.204552348347870626054247e-44
-3.891200362206798276538332e-45
-1.239973937148828438810036e-45
-3.89818489077686822817183e-46
-1.2091542099912247413203e-46
-3.700986186047469010509388e-47
-1.117932552111079027258018e-47
-3.332888108668853234703693e-48
-9.807906327659113390511223e-49
-2.849211231391615199338043e-49
-8.1715977021968207812716e-50
-2.314000654260625500687043e-50
-6.470432481791879480187107e-51
-1.786712415930208042074213e-51
-4.872644681713015415649577e-52
-1.312501715220275699335422e-52
-3.492170771044787082482831e-53
-9.178803221426128395294553e-54
-2.383446038035736567624954e-54
-6.11485440915650937755937e-55
-1.550102780185820433103346e-55
-3.882931198065708307720036e-56
-9.612009536162674010163086e-57
-2.351547176433137241576556e-57
-5.686004004211531086526379e-58
-1.358947900732459949827177e-58
-3.210466360441049158416783e-59
-7.497731470126091232382018e-60
-1.731068058822409484822399e-60
-3.95135693835295194155749e-61
-8.917659783280124673717341e-62
-1.98999515375942151970736e-62
-4.391095623037997056081504e-63
-9.58155757227426870643955e-64
-2.067585957126363124803534e-64
-4.412416358432732446359235e-65
-9.313123668954860640682339e-66
-1.944196028772306063538861e-66
-4.014483320798480490505781e-67
-8.199410109156148454953763e-68
-1.656596008889082948276591e-68
-3.310919659864907221302082e-69
-6.546285553868013728379544e-70
-1.280474712578221877345969e-70
-2.477944292196705502520732e-71
-4.744281648471666732727111e-72
-8.987127101558361004127236e-73
-1.68443810500790221227515e-73
-3.123808227016719910837748e-74
-5.732172761875981696979865e-75
-1.040804805489547364794509e-75
-1.870005679753808871306544e-76
-3.324663026672265283937719e-77
-5.849109435491289616289369e-78
-1.018296877182488783660281e-78
-1.754306640986545972505374e-79
-2.990787480667734696597668e-80
-5.04563243536804904726878e-81
-8.423549862016503532996308e-82
-1.391624079230281051089407e-82
-2.275054692326889657167822e-83
-3.680431105837192790568258e-84
-5.891610642534726674131104e-85
-9.33226174729510125904641e-86
-1.46266052660952914952871e-86
-2.268229606897470830353479e-87
-3.480141328211745152746956e-88
-5.282611560036620814572302e-89
-7.932560108213075255211254e-90
-1.178302198207807534030729e-90
-1.731164336849785554881789e-91
-2.515421856265876036588732e-92
-3.614254046594866519950915e-93
-5.134480280119521184521672e-94
-7.21053258757969436849279e-95
-1.000784087796446815253038e-95
-1.372485943144558129602612e-96
-1.859265693878776517455001e-97
-2.487063831229952802349656e-98
-3.283658126173781720629454e-99
-4.276878269429357470305144e-100
-5.491776176523595089581163e-101
-6.946471510888243266248179e-102
-8.646383673165186854678689e-103
-1.057657826332492075724245e-103
-1.269200660977571110398975e-104
-1.490550978334847003006681e-105
-1.707360043274270655848653e-106
-1.898023066593861128027489e-107
-2.031900137553333854915404e-108
-2.067456108760724695790446e-109
-1.950426646038686419111861e-110
-1.612150972026535409845112e-111
-9.682430301887757764304271e-113
8.220184811544084531795906e-115
1.656652363294884694389522e-114
3.888225338476337131891611e-115
6.923612318526773324685032e-116
1.091969105596666773245069e-116
1.603872565442535417378457e-117
2.244214294305087562635323e-118
3.028297602727885425652745e-119
3.969718345534367681158357e-120
5.079417607169806496637687e-121
6.364700326054735298592446e-122
7.828275433615154191712913e-123
9.467380729651891046605328e-124
1.127305948001780336690209e-124
1.322965469419046302777164e-125
1.531458064747714416926061e-126
1.749841932813093541145492e-127
1.974537250012857559723173e-128
2.201407889563071698646552e-129
2.425878209703294754939779e-130
2.643080973923479041201981e-131
2.848030080172022256340772e-132
3.035809706083205453820258e-133
3.201769916987269438706205e-134
3.341717889894898412621081e-135
3.452093782849507859535547e-136
3.530120961637229836275892e-137
3.573921749232097291410215e-138
3.582591981668109349981611e-139
3.556230270454279839322454e-140
3.495920774566487482463477e-141
3.40367123860416265635917e-142
3.28231082109102882417299e-143
3.135354603036561069256658e-144
2.96684345856485814783373e-145
2.781169070168717489566506e-146
2.582894229897214095660358e-147
2.376578200111263916392611e-148
2.166615890239309456077605e-149
1.957098065935276790779781e-150
1.751697905250664184726835e-151
1.553587130407495103364058e-152
1.365382849742032441416672e-153
1.189124301231189593736992e-154
1.026277025584192615262012e-155
8.777607037898280495526089e-157
7.439960200448045592010925e-158
6.24965464149402948971449e-159
5.202829397714706039100705e-160
4.292673401698347939758893e-161
3.510158156824642656352747e-162
2.844732027806928443519789e-163
2.284949276104583728409291e-164
1.819015596380569855513426e-165
1.435240078841607107031283e-166
1.122390738244843297008387e-167
8.699566907189490273478471e-169
6.683245667313475104372899e-170
5.088798095576024553621121e-171
3.840452255766001498527053e-172
2.87269708883980086878125e-173
2.129796887584791052167659e-174
1.565047920641930289661079e-175
1.139877135852830387914718e-176
8.228655951174157410701531e-178
5.88761496365138150803375e-179
4.175306688317447280195117e-180
2.934772101620623157720026e-181
2.044540089639291230523091e-182
1.411724836522281635579648e-183
9.661293833322964854930223e-185
6.553128507193799343109644e-186
4.40541984086229655182972e-187
2.935269200114157850985635e-188
1.938327270031373804419135e-189
1.268589347030542208122372e-190
8.228596922182661672282577e-192
5.289772826338633246409844e-193
3.37015774977838474192658e-194
2.127946148679497911555701e-195
1.331567540041720898864484e-196
8.25757731404558954511757e-198
5.074852832907257008512749e-199
3.090792426005850548584602e-200
1.865459365420431842483715e-201
1.115745276992978627726472e-202
6.613039729249480414829423e-204
3.884072060696341716595605e-205
2.260562503128555077537362e-206
1.303711921460815320387329e-207
7.450324254430348072001492e-209
4.218804863464119992697881e-210
2.367099389446873371809719e-211
1.315976603768800593919078e-212
7.248965790366424468210018e-214
3.956320690097760366822718e-215
2.139368447020940605183625e-216
1.146170462704919512564876e-217
6.083772814345031437198862e-219
3.199243462726246768108118e-220
1.666718496851491256828952e-221
8.602164941770419768888022e-223
4.398184665626909912446287e-224
2.227659068829764441502245e-225
1.11769342344317681948781e-226
5.55500240259258403792475e-228
2.734777607010138241915552e-229
1.333596207217044586448194e-230
6.441386564526985294213706e-232
3.081590221528404102412119e-233
1.460153437388624426081699e-234
6.852317648440415601405373e-236
3.184775987816955380415842e-237
1.465917248290039420366161e-238
6.682141248034581615060592e-240
3.016363430429720197472545e-241
1.348339942177292892636142e-242
5.968269949700725455895825e-244
2.615869984105721496227907e-245
1.135239518652641434604996e-246
4.8780607614277527884248e-248
2.075294180722586940985564e-249
8.74115808996440221396165e-251
3.645011414504564849440298e-252
1.504710202128734737440101e-253
6.149134723195229562056535e-255
2.487511521234755620946232e-256
9.960670722460654740296445e-258
3.947903693533108345830907e-259
1.548747937745567168670335e-260
6.013295416134921390741246e-262
2.310696805224272362978572e-263
8.787243432884174872263415e-265
3.306906286534061156777102e-266
1.231488988875225283647619e-267
4.537932994675120718285563e-269
1.654564145612898958989651e-270
5.968783085266044205157296e-272
2.130310440654277423557007e-273
7.521989720779935782539294e-275
2.627439395067176840715439e-276
9.078618308465274326713356e-278
3.102918563832380270716582e-279
1.048964026376261250937036e-280
3.507243828774104098354994e-282
1.159742409855861669551552e-283
3.792467790082647824179457e-285
1.226368838177742758923073e-286
3.921323721388394554067707e-288
1.239737331696312543113038e-289
3.875114306983862223961964e-291
1.19748234097888718317204e-292
3.658093592009116753765108e-294
1.104618596902997306153098e-295
3.296946340337790565864345e-297
9.725746137770104726288013e-299
2.835400443559229142022691e-300
8.168730207719984854202506e-302
2.325471209722584664090805e-303
6.541096451350295204630098e-305
1.817772449028744243597164e-306
4.990491791484299740852724e-308
1.353401918881190613175475e-309
3.625382488632087833795826e-311
9.59152543154953116399761e-313
2.506051151663138211012987e-314
6.46573829399522527432992e-316
1.646226731943033485196327e-317
4.347777683402969588753805e-319
0
0
0
0
0
0
-8.457012273993743632406406e-44