/*--------------------------------*- C++ -*----------------------------------*\
| =========                 |                                                 |
| \\      /  F ield         | OpenFOAM: The Open Source CFD Toolbox           |
|  \\    /   O peration     | Version:  v2012                                 |
|   \\  /    A nd           | Website:  www.openfoam.com                      |
|    \\/     M anipulation  |                                                 |
\*---------------------------------------------------------------------------*/
FoamFile
{
    version     2.0;
    format      ascii;
    class       volScalarField;
    location    "2";
    object      alpha.water;
}
// * * * * * * * * * * * * * * * * * * * * * * * * * * * * * * * * * * * * * //

dimensions      [0 0 0 0 0 0 0];


internalField   nonuniform List<scalar> 
96000
(
0
0
0
0
0
0
0
0
0
0
0
0
0
0
0
0
0
0
0
0
0
0
0
0
0
0
0
0
0
0
0
0
0
0
0
0
0
0
0
0
0
0
0
0
0
0
0
0
0
0
0
0
0
0
0
0
0
0
0
0
0
0
0
0
0
0
0
0
0
0
0
0
0
0
0
0
0
0
0
0
0
0
0
0
0
0
0
0
0
0
0
0
0
0
0
0
0
0
0
0
0
0
0
0
0
0
0
0
0
0
0
0
0
0
0
0
0
0
0
0
0
0
0
0
0
0
0
0
0
0
0
0
0
0
0
0
0
0
0
0
0
0
0
0
0
0
0
0
0
0
0
0
0
0
0
0
0
0
0
0
0
0
0
0
0
0
0
0
0
0
0
0
0
0
0
0
0
0
0
0
0
0
0
0
0
0
0
0
0
0
0
0
0
0
0
0
0
0
0
0
0
0
0
0
0
0
0
0
0
0
0
0
0
0
0
0
0
0
0
0
0
0
0
0
0
0
0
0
0
0
0
0
0
0
0
0
0
0
0
0
0
0
0
0
0
0
0
0
0
0
0
0
0
0
0
0
0
0
0
0
0
0
0
0
0
0
0
0
0
0
0
0
0
0
0
0
0
0
0
0
0
0
0
0
0
0
0
0
0
0
0
0
0
0
0
0
0
0
0
0
0
0
0
0
0
0
0
0
0
0
0
0
0
0
0
0
0
0
0
0
0
0
0
0
0
0
0
0
0
0
0
0
0
0
0
0
0
0
0
0
0
0
0
0
0
0
0
0
0
0
0
0
0
0
0
0
0
0
0
0
0
0
0
0
0
0
0
0
0
0
0
0
0
0
0
0
0
0
0
0
0
0
0
0
0
0
0
0
0
0
0
0
0
0
0
0
0
0
0
0
0
0
0
0
0
0
0
0
0
0
0
0
0
0
0
0
0
0
0
0
0
0
0
0
0
0
0
0
0
0
0
0
0
0
0
0
0
0
0
0
0
0
0
0
0
0
0
0
0
0
0
0
0
0
0
0
0
0
0
0
0
0
0
0
0
0
0
0
0
0
0
0
0
0
0
0
0
0
0
0
0
0
0
0
0
0
0
0
0
0
0
0
0
0
0
0
0
0
0
0
0
0
0
0
0
0
0
0
0
0
0
0
0
0
0
0
0
0
0
0
0
0
0
0
0
0
0
0
0
0
0
0
0
0
0
0
0
0
0
0
0
0
0
0
0
0
0
0
0
0
0
0
0
0
0
0
0
0
0
0
0
0
0
0
0
0
0
0
0
0
0
0
0
0
0
0
0
0
0
0
0
0
0
0
0
0
0
0
0
0
0
0
0
0
0
0
0
0
0
0
0
0
0
0
0
0
0
0
0
0
0
0
0
0
0
0
0
0
0
0
0
0
0
0
0
0
0
0
0
0
0
0
0
0
0
0
0
0
0
0
0
0
0
0
0
0
0
0
0
0
0
0
0
0
0
0
0
0
0
0
0
0
0
0
0
0
0
0
0
0
0
0
0
0
0
0
0
0
0
0
0
0
0
0
0
0
0
0
0
0
0
0
0
0
0
0
0
0
0
0
0
0
0
0
0
0
0
0
0
0
0
0
0
0
0
0
0
0
0
0
0
0
0
0
0
0
0
0
0
0
0
0
0
0
0
0
0
0
0
0
0
0
0
0
0
0
0
0
0
0
0
0
0
0
0
0
0
0
0
0
0
0
0
0
0
0
0
0
0
0
0
0
0
0
0
0
0
0
0
0
0
0
0
0
0
0
0
0
0
0
0
0
0
0
0
0
0
0
0
0
0
0
0
0
0
0
0
0
0
0
0
0
0
0
0
0
0
0
0
0
0
0
0
0
0
0
0
0
0
0
0
0
0
0
0
0
0
0
0
0
0
0
0
0
0
0
0
0
0
0
0
0
0
0
0
0
0
0
0
0
0
0
0
0
0
0
0
0
0
0
0
0
0
0
0
0
0
0
0
0
0
0
0
0
0
0
0
0
0
0
0
0
0
0
0
0
0
0
0
0
0
0
0
0
0
0
0
0
0
0
0
0
0
0
0
0
0
0
0
0
0
0
0
0
0
0
0
0
0
0
0
0
0
0
0
0
0
0
0
0
0
0
0
0
0
0
0
0
0
0
0
0
0
0
0
0
0
0
0
0
0
0
0
0
0
0
0
0
0
0
0
0
0
0
0
0
0
0
0
0
0
0
0
0
0
0
0
0
0
0
0
0
0
0
0
0
0
0
0
0
0
0
0
0
0
0
0
0
0
0
0
0
0
0
0
0
0
0
0
0
0
0
0
0
0
0
0
0
0
0
0
0
0
0
0
0
0
0
0
0
0
0
0
0
0
0
0
0
0
0
0
0
0
0
0
0
0
0
0
0
0
0
0
0
0
0
0
0
0
0
0
0
0
0
0
0
0
0
0
0
0
0
0
0
0
0
0
0
0
0
0
0
0
0
0
0
0
0
0
0
0
0
0
0
0
0
0
0
0
0
0
0
0
0
0
0
0
0
0
0
0
0
0
0
0
0
0
0
0
0
0
0
0
0
0
0
0
0
0
0
0
0
0
0
0
0
0
0
0
0
0
0
0
0
0
0
0
0
0
0
0
0
0
0
0
0
0
0
0
0
0
0
0
0
0
0
0
0
0
0
0
0
0
0
0
0
0
0
0
0
0
0
0
0
0
0
0
0
0
0
0
0
0
0
0
0
0
0
0
0
0
0
0
0
0
0
0
0
0
0
0
0
0
0
0
0
0
0
0
0
0
0
0
0
0
0
0
0
0
0
0
0
0
0
0
0
0
0
0
0
0
0
0
0
0
0
0
0
0
0
0
0
0
0
0
0
0
0
0
0
0
0
0
0
0
0
0
0
0
0
0
0
0
0
0
0
0
0
0
0
0
0
0
0
0
0
0
0
0
0
0
0
0
0
0
0
0
0
0
0
0
0
0
0
0
0
0
0
0
0
0
0
0
0
0
0
0
0
0
0
0
0
0
0
0
0
0
0
0
0
0
0
0
0
0
0
0
0
0
0
0
0
0
0
0
0
0
0
0
0
0
0
0
0
0
0
0
0
0
0
0
0
0
0
0
0
0
0
0
0
0
0
0
0
0
0
0
0
0
0
0
0
0
0
0
0
0
0
0
0
0
0
0
0
0
0
0
0
0
0
0
0
0
0
0
0
0
0
0
0
0
0
0
0
0
0
0
0
0
0
0
0
0
0
0
0
0
0
0
0
0
0
0
0
0
0
0
0
0
0
0
0
0
0
0
0
0
0
0
0
0
0
0
0
0
0
0
0
0
0
0
0
0
0
0
0
0
0
0
0
0
0
0
0
0
0
0
0
0
0
0
0
0
0
0
0
0
0
0
0
0
0
0
0
0
0
0
0
0
0
0
0
0
0
0
0
0
0
0
0
0
0
0
0
0
0
0
0
0
0
0
0
0
0
0
0
0
0
0
0
0
0
0
0
0
0
0
0
0
0
0
0
0
0
0
0
0
0
0
0
0
0
0
0
0
0
0
0
0
0
0
0
0
0
0
0
0
0
0
0
0
0
0
0
0
0
0
0
0
0
0
0
0
0
0
0
0
0
0
0
0
0
0
0
0
0
0
0
0
0
0
0
0
0
0
0
0
0
0
0
0
0
0
0
0
0
0
0
0
0
0
0
0
0
0
0
0
0
0
0
0
0
0
0
0
0
0
0
0
0
0
0
0
0
0
0
0
0
0
0
0
0
0
0
0
0
0
0
0
0
0
0
0
0
0
0
0
0
0
0
0
0
0
0
0
0
0
0
0
0
0
0
0
0
0
0
0
0
0
0
0
0
0
0
0
0
0
0
0
0
0
0
0
0
0
0
0
0
0
0
0
0
0
0
0
0
0
0
0
0
0
0
0
0
0
0
0
0
0
0
0
0
0
0
0
0
0
0
0
0
0
0
0
0
0
0
0
0
0
0
0
0
0
0
0
0
0
0
0
0
0
0
0
0
0
0
0
0
0
0
0
0
0
0
0
0
0
0
0
0
0
0
0
0
0
0
0
0
0
0
0
0
0
0
0
0
0
0
0
0
0
0
0
0
0
0
0
0
0
0
0
0
0
0
0
0
0
0
0
0
0
0
0
0
0
0
0
0
0
0
0
0
0
0
0
0
0
0
0
0
0
0
0
0
0
0
0
0
0
0
0
0
0
0
0
0
0
0
0
0
0
0
0
0
0
0
0
0
0
0
0
0
0
0
0
0
0
0
0
0
0
0
0
0
0
0
0
0
0
0
0
0
0
0
0
0
0
0
0
0
0
0
0
0
0
0
0
0
0
0
0
0
0
0
0
0
0
0
0
0
0
0
0
0
0
0
0
0
0
0
0
0
0
0
0
0
0
0
0
0
0
0
0
0
0
0
0
0
0
0
0
0
0
0
0
0
0
0
0
0
0
0
0
0
0
0
0
0
0
0
0
0
0
0
0
0
0
0
0
0
0
0
0
0
0
0
0
0
0
0
0
0
0
0
0
0
0
5.367806280094629678724781e-65
1.093598425609499603320452e-62
1.089268030690187817235762e-60
7.148585697793430440142674e-59
3.472838133647007728559048e-57
1.266406869146934574853152e-55
3.489275255601477495755148e-54
8.168114210274000686046965e-53
2.113188845784793987633386e-51
5.785563634882405632987685e-50
1.936663646128183852390118e-48
3.572259513797958725447956e-47
7.786300284591173254403126e-38
9.08648889306028943216515e-38
9.946775531955680269247737e-38
1.07656990401451282192307e-37
1.161832705156697138138802e-37
1.252455549357950192939464e-37
1.349224678355525722175887e-37
1.452663438643871572724934e-37
1.563254342888918007364763e-37
1.681493548138441349894877e-37
1.807905457523882181976739e-37
1.943047855491688302513864e-37
2.087514927326767478077631e-37
2.241939954661146884741012e-37
2.406997796777887278991323e-37
2.583406938795757979883654e-37
2.771932632509640802863269e-37
2.973393663847410632569425e-37
3.188667155776858754707774e-37
3.41867570980846703967343e-37
3.664370600439381483735772e-37
3.926791817302135676235218e-37
4.207216669555458308956917e-37
4.507072498752979691879873e-37
4.827251140093084447929793e-37
5.167732874320961482963483e-37
5.529841426060459008373894e-37
5.920328489589030610192417e-37
6.348438776406483033248846e-37
6.807299392610688798760786e-37
7.261924445191318764078567e-37
7.697565137297893885633177e-37
8.200442621049097435433102e-37
9.011431273175150632213692e-37
1.036476618551361106112871e-36
1.150201286976710554562159e-36
1.172100972053801602207354e-36
1.172214650977219367381916e-36
1.171241416406128729801122e-36
1.168287291401711503195374e-36
1.161947853705780037364918e-36
1.149214579510297205653898e-36
1.123104797543801585900873e-36
1.080585682984745198411451e-36
1.050163150597354067627011e-36
1.045168520689947147792482e-36
1.045087026650661367411444e-36
1.045118832337735215476235e-36
1.04532570667590526575612e-36
1.045874235715875161404758e-36
1.046285952935135732073074e-36
1.046289602428376076475292e-36
1.045747323742142301904265e-36
1.043052331192886436547397e-36
1.035441340073483395682009e-36
1.02014233078898559002012e-36
9.961228008739875544215312e-37
9.651800448078807987206579e-37
9.285594072319396341956286e-37
8.945691895660731108712272e-37
8.360608014007981642523398e-37
1.616628036198555432889505e-36
3.531631849652463135757283e-36
1.75796457238373547774516e-35
2.162558533789792683196752e-34
2.588040214940203615008195e-33
2.468538168469328041099088e-32
1.891524516618706556807679e-31
1.187485789383437428861131e-30
6.192239331343293885782264e-30
2.699144320286477364078589e-29
9.747946088147350627524373e-29
2.742373549661601453171946e-28
5.053022838375933501271567e-28
5.769467111244784836110941e-28
5.641692946517903494013042e-28
4.778160753146318125579744e-28
2.739604441571477233316449e-28
6.991817282389336456494446e-29
4.481042053920731149864731e-30
3.869891701798337666003385e-32
2.515786447854720024564427e-35
8.610429462953745406885756e-40
2.682570396943255612992977e-44
7.69284782879561074105984e-49
2.077001864516622723688647e-53
5.450347891614337317873277e-58
1.448765074107888834704139e-62
3.966742200406373444170664e-67
1.098696309794919432360145e-71
3.005492135491828421339941e-76
8.076185879943183735599786e-81
2.154073375785566998302007e-85
5.764317994263511238272132e-90
1.549958683581419237724028e-94
4.164955074765527246224102e-99
1.112995150563026263862869e-103
2.956721212389816068368873e-108
7.829337368600935306800539e-113
2.071021893914076060813304e-117
5.472035026099742567799218e-122
1.442044288526479535809324e-126
3.786206889406442556542256e-131
9.904858800440758493432195e-136
2.583418906020981890528984e-140
6.720657952452391202702156e-145
3.086486100108024460087335e-149
6.701987473932519477559991e-150
2.458246724192221332531145e-150
8.90132666437068166617472e-151
3.221330817546341909241963e-151
1.16362911789302673803689e-151
4.138757296187956675397504e-152
1.439263389603520866606636e-152
4.877670970783415408715054e-153
1.607115835079784006784202e-153
5.138251065732948530094094e-154
1.591880240919693588414017e-154
4.774340043894002473586451e-155
1.385325901648019052776567e-155
3.887495414535155042440599e-156
1.054876954827138333857086e-156
2.767912090224936320034915e-157
7.023905562451360080039159e-158
1.724158964154248375708434e-158
4.095180967469768067419166e-159
9.414805301276741550542823e-160
2.095808849303717114097458e-160
4.519220497601317051004808e-161
9.443281167752180462227272e-162
1.912978215054943342424631e-162
3.758439829939840190721374e-163
7.16473146487757426575115e-164
1.325781949670501932146851e-164
2.38237350400908912035716e-165
4.159100328484854933036897e-166
7.057123460810040012765567e-167
1.164348330968851860724183e-167
1.868765831746849844011705e-168
2.919012634235043022863994e-169
4.439377420531462918528052e-170
6.576786120487773937647918e-171
9.495494078328456761323032e-172
1.336743347326451666354496e-172
1.835816663211631623839704e-173
2.460921695076201403165191e-174
3.221848466894126847703382e-175
4.122133426900440618092454e-176
5.157559086428797544734087e-177
6.315402344117436182664706e-178
7.574808485772430356660096e-179
8.908738099353779449521247e-180
1.028821970961928699818407e-180
1.169050751866902003822601e-181
1.311498565559804777807885e-182
1.461600193924936371403778e-183
1.637399591746162821360234e-184
1.885337743122593767898104e-185
2.315484529833772618773404e-186
3.179754301990584678416049e-187
5.043817627652398272601118e-188
9.160482666341907251509583e-189
1.827056051585977743489088e-189
3.829897496221974551669149e-190
8.190148585291187225745984e-191
1.757876254880700795037389e-191
3.756497967286084687555239e-192
7.962154229669090604714906e-193
1.670979676941578360567747e-193
3.469436808010980241295487e-194
7.124259096319141480078263e-195
1.44659903444052964096838e-195
2.90443145337642850330055e-196
5.766009410962126004304189e-197
1.131871945098003479885553e-197
2.197041519492176726847461e-198
4.217081158358006791578487e-199
8.004483436195410413352881e-200
1.502511672146009994620548e-200
2.789211219758161879269473e-201
5.120824081112872540185058e-202
9.298418483783358600463979e-203
1.669955420780476026201799e-203
2.966489824808392820822311e-204
5.212409232507918992473626e-205
9.059559197063593855648125e-206
1.557627452521616534675047e-206
2.649249710618981636807396e-207
4.457584104721889347036906e-208
7.420067646798526266268735e-209
1.221973856303615786299157e-209
1.991019423027289081537176e-210
3.209683037994810988984494e-211
5.119589420590185781960179e-212
8.079927260137212482495777e-213
1.261803788136438715654299e-213
1.949847804580831527586426e-214
2.981578807124396339625302e-215
4.511702688188709809203296e-216
6.756081675796477367873217e-217
1.0012001701287606720976e-217
1.468350178893504842585835e-218
2.131237735696962828017881e-219
3.061528076724695515739746e-220
4.352702503339650238753193e-221
6.124972533075427642708481e-222
8.530676992177013936558678e-223
1.175997918603253185791533e-223
1.60465828391601059906927e-224
2.167307437675285056689024e-225
2.89753820064245117846426e-226
3.834572885072770289078765e-227
5.023336113965053048154257e-228
6.514226891509588518837789e-229
8.362510315560709943052814e-230
1.062725470297254191509422e-230
1.336975353321760154379246e-231
1.665139456161747599127379e-232
2.05309710410359162707975e-233
2.506147158139739436075412e-234
3.028643398194571640583501e-235
3.62360013761100911188539e-236
4.29228720525298677823099e-237
5.033838223839252381844804e-238
5.844899829214338534050482e-239
6.719351549903375356448245e-240
7.648126000969725864751837e-241
8.6191564786749453423207e-242
9.617473811917752285697334e-243
1.062546652373089148619527e-243
1.162330835092766740897961e-244
1.258954560709864695820758e-245
1.35018246359115557770771e-246
1.433772773641026286247875e-247
1.507567556518498531886795e-248
1.569584619706171407798879e-249
1.618105664980309044494594e-250
1.651755236082951374302679e-251
1.669565409013815767638139e-252
1.67102198463627962636271e-253
1.656089111311746596014761e-254
1.625210694847825361472486e-255
1.579288522828776387122984e-256
1.519638604560574759318328e-257
1.447928670253390338161258e-258
1.366100961648993605258668e-259
1.276285285602250811335969e-260
1.18070773259354391237e-261
1.081600465003164042376699e-262
9.811175774573060702692649e-264
8.812612823897165000456693e-265
7.838216652127404857370857e-266
6.903320896169582571249574e-267
6.020411245175625586078469e-268
5.199007139406711067084429e-269
4.445693077509043290022621e-270
3.764278796170360990468255e-271
3.156062172576460166916146e-272
2.620165897449533506945186e-273
2.153918636151085232217414e-274
1.753253198761978336099465e-275
1.413097701006709281501759e-276
1.127740270203094783331032e-277
8.911529820025248612245535e-279
6.972659006540555929519271e-280
5.401869216681654148518604e-281
4.14367275785143053779319e-282
3.147158599434423618291619e-283
2.366679392797403082325201e-284
1.76215234243701395118263e-285
1.299050615893120699870577e-286
9.481617788990502148796841e-288
6.851844345391007056538186e-289
4.90225499642048950321081e-290
3.472499043777323585737193e-291
2.435232487161701473851913e-292
1.690770939951719436312428e-293
1.162168049127141415829056e-294
7.90835978898575702174641e-296
5.327586606735273426374773e-297
3.552992307493945135589199e-298
2.345689150469472272954988e-299
1.533033485571480775575413e-300
9.918137188082306054559319e-302
6.351816100402457229465648e-303
4.026677495090594297473716e-304
2.52678588460334890125056e-305
1.569473460980222805219153e-306
9.649270132970865837083633e-308
5.871927118089280589278802e-309
3.53673917603729686181153e-310
2.108394159436891678931356e-311
1.243990048795102339500273e-312
7.264203408682576071124332e-314
4.198116147995024198886033e-315
2.401072676113565154802202e-316
1.35904317024747547144899e-317
7.611921185782333132165142e-319
4.216850287255039254547015e-320
2.391277725871633273814593e-321
8.399115979301191251001669e-323
0
0
0
0
0
0
0
0
0
0
0
0
0
0
0
0
0
0
0
0
0
0
0
0
0
0
0
0
0
0
0
0
0
0
0
0
0
0
0
0
0
0
0
0
0
0
0
0
0
0
0
0
0
0
0
0
0
0
0
0
0
0
0
0
0
0
0
0
0
0
0
0
0
0
0
0
0
0
0
0
0
0
0
0
0
0
1.261153638975884496526583e-65
9.503748202856620750960514e-63
1.650367101353003333886465e-60
1.52984464209782040246472e-58
9.566082321218060685336173e-57
4.523591876196722236587515e-55
1.67472148047130358034463e-53
4.930305421915369689021091e-52
1.186714682790694822699668e-50
2.667667662173259270681271e-49
5.849049840909266986754618e-48
1.642258401860801871083817e-46
2.90825657386282767513378e-45
2.740605031302970984329213e-36
3.45792846886399450259446e-36
4.012629630357167529737252e-36
4.579891835883644163050548e-36
5.198414650047127864004998e-36
5.881632645208441827868078e-36
6.637588440997811333644628e-36
7.473450094335312170512363e-36
8.396622002423217315369924e-36
9.415049434924199159108864e-36
1.053733149859030021747547e-35
1.177279080057358265590756e-35
1.313153614025598737796155e-35
1.462452705913589102434456e-35
1.626364099704209716937983e-35
1.806174389049756852584133e-35
2.003277353632604654815461e-35
2.219184156620076979628476e-35
2.455531528345455388312599e-35
2.714082681736296030996082e-35
2.996734742128655569030513e-35
3.305567395876825151058933e-35
3.642905407718141360074359e-35
4.011228529313436521021364e-35
4.412874071320622966318737e-35
4.850107841541303965800079e-35
5.326368426666921615078524e-35
5.847572551712158501831825e-35
6.419580146567127148800107e-35
7.040740252438505353965573e-35
7.700530975005910105356028e-35
8.399302980069696550752499e-35
9.176274800283907082169844e-35
1.010613520910707145690694e-34
1.123321257453463490597798e-34
1.248547507998221531302636e-34
1.370664349199119759160596e-34
1.474538923951731360297786e-34
1.550831847664054030043315e-34
1.602636964722534596827289e-34
1.645216906817395801833155e-34
1.702396057990301442934723e-34
1.817186792407458290428982e-34
2.014506535253094902106057e-34
2.147437217414686093231026e-34
2.163783818883713552740595e-34
2.163730452151324055736893e-34
2.162435139068811150470124e-34
2.156650710203358969243261e-34
2.138948285840375453050998e-34
2.098811159643439651867818e-34
2.040532221657865688839296e-34
1.9977159946817933824987e-34
1.980759794990243434518436e-34
1.972379808099543983400846e-34
1.962998948912295449843657e-34
1.94658635563634688175478e-34
1.916493142591119076111749e-34
1.862999874744935732038322e-34
1.792522698281410397894982e-34
1.611063927528033189584641e-34
2.718557181829285299821463e-34
5.634795868468346165555309e-34
3.45241642826632313175598e-33
4.49897828600745149642629e-32
5.169561792516171062641189e-31
4.675522594028976454378442e-30
3.388843550662509398578278e-29
2.008098202422532186420541e-28
9.851104935756486990529081e-28
4.012346969942748719704809e-27
1.325697350104920449365593e-26
3.194082773908424589865295e-26
4.681973429933459237491708e-26
4.81267273544752000237322e-26
4.52036369155273979813956e-26
3.348146364112672144524502e-26
1.430147668509953339509712e-26
2.160362255249362801731088e-27
6.344367063706579237765267e-29
1.995104167013279184589086e-31
3.796452023094668822794956e-35
1.05375265597605169260383e-39
2.783079107143757917766841e-44
7.35668558439699486049939e-49
2.018896229230393821630876e-53
5.729746923734283677699865e-58
1.614998457798621375423122e-62
4.445363489314474197931279e-67
1.208047057190606016382011e-71
3.286767948592180068793657e-76
8.999222289393552175743177e-81
2.472391640877309918071454e-85
6.776450695150974493566754e-90
1.847418701984358100763638e-94
5.014813361971617928001075e-99
1.358620938635955575150635e-103
3.677831849931453207016411e-108
9.942823276369754846843434e-113
2.681397391803022413926919e-117
7.208695185470934505486056e-122
1.932069331248738453593503e-126
5.164417520118046041546711e-131
1.377006016399031370912943e-135
3.661897643184968308669817e-140
9.709726952934470795749594e-145
5.077129276990096697866955e-149
1.230192633547949414219557e-149
5.063451964253583394522148e-150
2.080879119018492454049493e-150
8.415366318999430190055643e-151
3.326491025446532528786847e-151
1.274667464486618780274149e-151
4.717190188405097801746709e-152
1.683380272549001482732658e-152
5.788357071090684845822194e-153
1.917094528604355168480473e-153
6.115206851813707855222712e-154
1.878910218357331426485407e-154
5.562050222814904473122333e-155
1.586893792547795748219287e-155
4.365426466292205791917347e-156
1.15844530293649244809033e-156
2.966973169429191606361362e-157
7.337860006287532605925548e-158
1.753381497439428659736871e-158
4.050139024414034686234709e-159
9.048673172956277904723695e-160
1.956385443785574116705841e-160
4.095517762755209903372068e-161
8.305679203125602128210499e-162
1.632590009958596362371516e-162
3.111968487020225218690557e-163
5.755284759401963871059055e-164
1.033206359525867544008084e-164
1.801396109633754171258243e-165
3.051725944481048861461355e-166
5.025834535050709210635222e-167
8.050268695018462159449805e-168
1.254779819969929305958812e-168
1.904139360271162640650782e-169
2.814676017938796147658114e-170
4.054975727412570484317581e-171
5.696649905433718746259017e-172
7.808649240985590554638172e-173
1.04502637935437380317619e-173
1.366359012685778478234084e-174
1.746665356433450962033843e-175
2.184879406648163477866906e-176
2.677050446787847367602766e-177
3.217113657693314425522968e-178
3.799100723535992259179839e-179
4.422235647035274066112871e-180
5.102294768345706290764735e-181
5.89716630641693168320295e-182
6.965005256894199165376441e-183
8.696938375782330600987098e-184
1.201850968485437607928581e-184
1.906825570206114469145467e-185
3.470810134431669736597459e-186
6.984439186831230467543898e-187
1.486387785152498964311591e-187
3.239674486217139830855095e-188
7.101446448000156573900292e-189
1.551314804603250383834683e-189
3.362586095914793704061643e-190
7.217595250297744349390397e-191
1.532703745364410709432185e-191
3.218788437098404751592672e-192
6.683745162465498577952767e-193
1.372187537086957781947856e-193
2.785280647117862874183852e-194
5.589759623558976924348269e-195
1.109170070601763244872744e-195
2.176200036340679338203641e-196
4.221932477932964332120828e-197
8.099390167215585585493184e-198
1.536522627105543235698711e-198
2.882626031772706733773726e-199
5.348320254717830978766542e-200
9.813935320304733149705392e-201
1.781075892578314428246812e-201
3.19706647818769540983905e-202
5.676324990674912848017354e-203
9.968854984182807808789663e-204
1.731815363275633306286555e-204
2.97612907267916894890563e-205
5.059540921204246255029714e-206
8.509316475084849796718885e-207
1.415849885284588347356644e-207
2.330736571603215378690436e-208
3.796092716885980465985333e-209
6.117330993057366014810905e-210
9.753990301988278532032483e-211
1.538902725767695946203849e-211
2.402489962982834109172701e-212
3.711473201395900036812109e-213
5.673850628498124129628475e-214
8.583580736157130062652369e-215
1.285079664388791330452359e-215
1.904031865990582353283293e-216
2.791980331198306861758917e-217
4.051870695097449544997567e-218
5.819889117441426668610477e-219
8.27371033839009292103896e-220
1.164186810797526972091053e-220
1.621406182807460512952495e-221
2.235205851697549391557108e-222
3.050066306422348505808895e-223
4.119801905703688237743798e-224
5.508427962085454903541238e-225
7.290747119342568781322499e-226
9.552518741912339498772779e-227
1.239006249792036863652191e-227
1.590914409161133914336338e-228
2.022300048112840834042571e-229
2.544938682073722029070509e-230
3.170656986216146460938308e-231
3.910825336339631401670623e-232
4.775749910490527372511663e-233
5.773979916670395512044064e-234
6.91155556215606558625946e-235
8.191232497638429080721754e-236
9.611727695725836506753585e-237
1.11670389909050679834083e-237
1.284589474221243305973131e-238
1.463139032226753056608314e-239
1.65008636756875067247537e-240
1.842605268624503790002267e-241
2.037356267415117250281024e-242
2.230565366550939558173143e-243
2.418133531064832658438686e-244
2.595773410949589116674976e-245
2.759167489132901372365337e-246
2.904139839988624799581691e-247
3.026832138700725308366265e-248
3.123873655096685145309074e-249
3.192534818911938706296941e-250
3.230854611001464725876357e-251
3.237733493756416827162487e-252
3.212985742716061199747438e-253
3.157347709055990672806952e-254
3.072441504779628726368394e-255
2.960696604225557567457014e-256
2.825234638313959953907744e-257
2.669724986635591672166033e-258
2.498220459313274248265873e-259
2.314983283736510993650397e-260
2.124311725100286915975746e-261
1.930377006208069468197166e-262
1.737078853577540170479336e-263
1.547926141637874998219636e-264
1.365946928645808494338922e-265
1.193629884365474990282065e-266
1.032896899577515439901933e-267
8.851047126693469711938476e-269
7.510718188481311511821951e-270
6.31125823062226545137832e-271
5.251657870522580299178865e-272
4.327339848757952971426348e-273
3.530917612688817667911359e-274
2.852947969307085579654301e-275
2.282639226002601184558218e-276
1.808485849580920948885833e-277
1.418810547506619248895622e-278
1.102203993311137582808869e-279
8.478605657201387170840464e-281
6.458150553213089185919539e-282
4.870901346244505348738612e-283
3.637674943496196287477652e-284
2.689970731528626496985747e-285
1.96959000798940245549052e-286
1.427920397485939273498233e-287
1.025007631776894594722773e-288
7.285174486740157870292164e-290
5.126691278531977925719098e-291
3.57201341944335957273086e-292
2.464119881316244281649993e-293
1.682973624951859106291251e-294
1.138028575982641042606129e-295
7.618734162448930946456283e-297
5.049628659130647140058849e-298
3.313415985731200824256e-299
2.152410331841484002054808e-300
1.384201108962872304193619e-301
8.812325355178861655500499e-303
5.553809655842669921124493e-304
3.464912513648138093074941e-305
2.139862103956761102081092e-306
1.308165495251943330624521e-307
7.916147387993442203562054e-309
4.741655056707195114617007e-310
2.811261850567292758106724e-311
1.649749393150354378042969e-312
9.582300640473884769140679e-314
5.508663805768649816132362e-315
3.134273406713533476809084e-316
1.764942307522705728570706e-317
9.837686920297148813680585e-319
5.426322988274410794691255e-320
2.964393875047479265059413e-321
1.679823195860238250200334e-322
0
0
0
0
0
0
0
0
0
0
0
0
0
0
0
0
0
0
0
0
0
0
0
0
0
0
0
0
0
0
0
0
0
0
0
0
0
0
0
0
0
0
0
0
0
0
0
0
0
0
0
0
0
0
0
0
0
0
0
0
0
0
0
0
0
0
0
0
0
0
0
0
0
0
0
0
0
0
0
0
0
0
0
0
2.031351757562831794732175e-66
1.621512302959770264867357e-63
6.810386988487268336008778e-61
1.064290241528436076268026e-58
9.488474022143595394686194e-57
5.826713215405313235505139e-55
2.729816382400612614708794e-53
1.011930369015482259633143e-51
3.048567854287359505643405e-50
7.576172622186001686864244e-49
1.669480450122476562768378e-47
3.247912130929158720741928e-46
7.561993196438074558653028e-45
1.229348431608809723942633e-43
4.916067092390086639049735e-35
6.517447230700341326147097e-35
7.887277220406314117995136e-35
9.37694915447473544187124e-35
1.108251836936414928595216e-34
1.305229946051268502222551e-34
1.532635727935376358105958e-34
1.794594539328399366646645e-34
2.095610885734094711445868e-34
2.440666655677997134035179e-34
2.835283123908884845378309e-34
3.285577763128910871138154e-34
3.798323834050081487544868e-34
4.381014953501994002345554e-34
5.041935245759692340176356e-34
5.790236076472065036220783e-34
6.636021979028216758593868e-34
7.590445799207718803653495e-34
8.665803430920014669904241e-34
9.875624266385542619251886e-34
1.123480179911711162813575e-33
1.275982273304202253307136e-33
1.446896304820635168673933e-33
1.638209298605005094813446e-33
1.852025020011730589865826e-33
2.090648605099610829675777e-33
2.356904861841746813786233e-33
2.654303978659156348014432e-33
2.986273779517856805385428e-33
3.354706759160775913435445e-33
3.760352879862722492850547e-33
4.207268966540747310366417e-33
4.707971717300845158016567e-33
5.281768828924677613092243e-33
5.9435011045992171818151e-33
6.689924386001732886262947e-33
7.492887006737366948087881e-33
8.300572809561282916684145e-33
9.055570720705691021075908e-33
9.736435943857954729936546e-33
1.038310672891750423908754e-32
1.108479896479381615283715e-32
1.198702506617398638262511e-32
1.336655586244800877960521e-32
1.551604037160049856452621e-32
1.74565355585068437675405e-32
1.789481745914528639152429e-32
1.789391570622485116978316e-32
1.78547729179867265092732e-32
1.775126587415038955610431e-32
1.757041998791141193359865e-32
1.735909648813416437842626e-32
1.720220065164375153200444e-32
1.710876968493113920773634e-32
1.703419077230085960157386e-32
1.693836779341170225973052e-32
1.677849986811962320816687e-32
1.650426050082025329779687e-32
1.604061805404864741600326e-32
1.54510978091120199309871e-32
1.375364104134874263126928e-32
2.145001097688522176608934e-32
4.420982610802566451561002e-32
3.20331958376833716936305e-31
4.231589124998311676813456e-30
4.657542733813517833044164e-29
4.00591380759308559096401e-28
2.754630913180056732697753e-27
1.544698778550247936938887e-26
7.141689320291120792572316e-26
2.71378898835566100536609e-25
8.084473036755138374169059e-25
1.614775562618010668599745e-24
1.947642205792859479590859e-24
1.923335923098733156973352e-24
1.677096878945781463810707e-24
1.031642916402185222920711e-24
3.038100140413487533143989e-25
2.49025318739362996736419e-26
3.118027900774948903565997e-28
3.285877116253293935498395e-31
1.758816458473931039244745e-35
4.797531481029174605593579e-40
1.418695078794928680295079e-44
4.148970006763509537401918e-49
1.176507036511567117693052e-53
3.264765831025814913073039e-58
8.987013528351524655811792e-63
2.486251903389498218091683e-67
6.92937363471765623673577e-72
1.935186249656282886950819e-76
5.384792933990093200860207e-81
1.48930830113022434466369e-85
4.099081056167257647332481e-90
1.125756869930108314307424e-94
3.090024802492291284903135e-99
8.474653334714591796316128e-104
2.319356630701717561860258e-108
6.328040523370046209609032e-113
1.721003305780653541724442e-117
4.667757547589360568753863e-122
1.26305746751363014566858e-126
3.409720239259778752266677e-131
9.180190891470096885825131e-136
2.464196122215066721546748e-140
6.593726041430127448459286e-145
4.521824042779154481506528e-149
1.404487882547241594731167e-149
6.44391927349953581793102e-150
2.910236157645954375221749e-150
1.27754012315278372779109e-150
5.405350662504456803088272e-151
2.19164915333698891934926e-151
8.501432738443903026011733e-152
3.15464617618058396295706e-152
1.120367118527843212685273e-152
3.811100313546264257897918e-153
1.242788348796216042923672e-153
3.888561253924484259564733e-154
1.168452336236974735882551e-154
3.374740273086123472247055e-155
9.376560833262985005588368e-156
2.508278721336059663156534e-156
6.465173707215284244930736e-157
1.606896331589196185227398e-157
3.854054150820343782696554e-158
8.926421018076148242751635e-159
1.997848792571626143795656e-159
4.3237353842373249311535e-160
9.054044838856736004927216e-161
1.835608936012394840204303e-161
3.605211392419024197122888e-162
6.863514625460695209596139e-163
1.267284414485730599000262e-163
2.270675931537181906833164e-164
3.950282805396310460188448e-165
6.676203033833998411834148e-166
1.096717734833792114871697e-166
1.752107367141942557833111e-167
2.723743512394666288166447e-168
4.122446382847939219489878e-169
6.07823704773446898946244e-170
8.735628522951104296342096e-171
1.224553807139135560240254e-171
1.675406949796621497401147e-172