# geometry NO_DATA 420
#  x  y  z
0.5958212520931590594486238 0.02526653324360590008312855 0.3794452811504469558201436
0.5916425041863180300794056 -0.0166666666666666594964763 0.3834545187149619449584748
0.5958212520931590594486238 -0.008066800089727429318164909 0.3794452811504469558201436
0.5785033972279218783540955 -0.009611547250125793140362873 0.3916425041863180744883266
0.5695430381763665339533986 -0.03458738476977715053939377 0.3958212520931589928352423
0.5695430381763665339533986 0.01536429026952556425866803 0.3958212520931590483463935
0.5898167960323910108400014 -0.04164250418631801342606025 0.3816288105610349257190705
0.5766776890739946370700864 -0.04164250418631801342606025 0.3898167960323909442266199
0.5766776890739947480923888 0.04164250418631802730384805 0.3898167960323909442266199
0.5898167960323910108400014 0.04164250418631802730384805 0.3816288105610349257190705
0.6456146035095071678000522 -0.01126170620920408094178811 0.3570878767192240399452885
0.6478073017547535394911051 0.01768623063363645303569527 0.3575976587027089870218788
0.6478073017547534284688027 -0.04020964305204462185816539 0.3575976587027088759995763
0.6251714191814226051491232 -0.03680994299814016601501976 0.3628901490052488520987595
0.6374357555924057283647244 -0.04561460350950719694340663 0.3611902989782965200937781
0.6106974507600023693854041 -0.04119533948863296490827679 0.3691761319553130693549292
0.6106974507600023693854041 0.04119533948863296490827679 0.3691761319553131248660804
0.6251714191814227161714257 0.03680994299814017989280757 0.3628901490052488520987595
0.6374357555924058393870268 0.04561460350950721776008834 0.3611902989782965756049293
0.6333502670985239335621486 -0.007862006155299614690301624 0.3587877267461763719502699
0.6232786289327872930599028 0.01228127017617388141990098 0.3609973587566135400095391
0.6088046605113670572961837 0.0002906957239545449609222083 0.3672833417066777017545576
0.6044023302556835730570128 0.02481936854592084462645118 0.3713596926463047509514581
0.6044023302556835730570128 -0.02423797709801175231936199 0.3713596926463047509514581
0.6991230213555056360874573 -0.01500541338782615183311542 0.3517076052839146482753563
0.6995615106777528513504194 0.01745094130101271928667828 0.3520997426010876729662868
0.6995615106777528513504194 -0.0474617680766650090751213 0.3520997426010877284774381
0.6699331934985035541529896 -0.04657220504986547826575816 0.354143505476331388326372
0.6853244520123503713548985 -0.04912302135550553061626999 0.3536987239629316714939478
0.6537050161540840509388772 -0.04744918369435993654725792 0.3564074963828154363199019
0.6537050161540840509388772 0.04744918369435995042504572 0.3564074963828154918310531
0.6699331934985035541529896 0.04657220504986547826575816 0.354143505476331388326372
0.6853244520123503713548985 0.0491230213555055375551639 0.3536987239629315604716453
0.6837317628416588188855485 -0.01411585036102661235013489 0.3521523867973144206189318
0.6687789936500594389912067 0.01578968802217220815387044 0.3529893056278872176534378
0.6525508163056399357770943 -0.01126170620920408267651158 0.3552532965343712101358165
0.6512754081528198124573237 0.01952081081848919263954656 0.356680368610282627628294
0.6512754081528198124573237 -0.04204422323689736146201668 0.3566803686102825166059915
0.7476175890836738169298314 -0.01164451625873635584595966 0.3548934861202912571798151
0.7488087945418367974426133 0.01930640615827082864908171 0.3562133558660933729811404
0.7488087945418369084649157 -0.04259543867574354381044799 0.3562133558660933729811404
0.7168349423253449481663324 -0.04674616132858142036887727 0.3525506865750043239415845
0.7330658951144652935028034 -0.04761758908367384052207072 0.3546260479014233801819955
0.7013594811168413212243422 -0.04912857224490756180568241 0.3521901077562615833826953
0.7013594811168415432689471 0.04912857224490757568347021 0.3521901077562614723603929
0.7168349423253449481663324 0.04674616132858142730777118 0.3525506865750043239415845
0.7330658951144652935028034 0.04761758908367386827764633 0.3546260479014232136485418
0.731386636294553360571058 -0.015795238911574228934942 0.3528181247938723119617066
0.7163468889635959957473688 0.0142842557503405232638416 0.3520626332132554825449233
0.7008714277550925908499835 -0.01500541338782615183311542 0.3517020543945126864748829
0.7004357138775463287316825 0.01745649219041475394553764 0.3520969671563867198216258
0.7004357138775463287316825 -0.04746731896606704720342762 0.352096967156386775332777
0.7917660610547520017021839 -0.0005876601684727244265596391 0.3662734421943451001979497
0.7958830305273760785667037 0.02451173421961254719758649 0.3701959759708180475179518
0.7958830305273761895890061 -0.02568705455655799843595055 0.3701959759708180475179518
0.7682548078708508754175455 -0.03787089848450968243565029 0.3598220801494321219315964
0.7829738932523964134446715 -0.04176606105475193231324482 0.365914002113408021177321
0.7557051106768081227826883 -0.04610483742975774595906913 0.3582161858807731968923349
0.7557051106768080117603859 0.04610483742975776677575084 0.3582161858807731968923349
0.7682548078708508754175455 0.037870898484509703252332 0.3598220801494321219315964
0.782973893252396302422369 0.04176606105475194619103263 0.365914002113408021177321
0.7770469756732065746973603 -0.01277150409642441655777567 0.3601815202303692009522251
0.7664448597642847804678468 0.008432727721418616789739175 0.3580121320428663045376538
0.7538951625702422498775945 -0.01164451625873635584595966 0.3564062377742074350095436
0.751947581285121069427646 0.01779365450435472714718621 0.3569697316930514618960046
0.751947581285121069427646 -0.0410826870218274492474464 0.3569697316930514618960046
0.8323093494914038936727252 -0.01310692419379710926818916 0.3954162736852009918386841
0.823030264217900708878517 0.01105895650993815246265761 0.3908325473704020169840589
0.8323093494914040046950277 0.03522483721367341419350439 0.3954162736852010473498353
0.8184465379031016230015894 -0.04083254737040192122732307 0.3867891102676312975461315
0.8184465379031016230015894 0.04083254737040192816621698 0.3867891102676313530572827
0.8045837263147992413081511 0.02357822053526253264221779 0.3781619468500616587647301
0.8091674526295983271850787 -0.0005876601684727232339372494 0.3822053839528323226915063
0.8045837263147992413081511 -0.02475354087220798388058185 0.3781619468500616587647301
0.5420710606421211830152629 0.005850333416166715767847695 0.4137792727740454701290673
0.5341421212842424326439073 -0.01666666666666666990481716 0.4199962273502045317918885
0.5420710606421211830152629 -0.0274829999171666145008075 0.4137792727740454701290673
0.519891607542490530313728 -0.01183436081683708271383715 0.4341421212842424548483677
0.5135700331586173783549043 -0.0293098154344128558612681 0.4420710606421212052197234
0.5135700331586174893772068 0.005641093800738697372487707 0.4420710606421212052197234
0.5338462190307184940252228 -0.03414212128424243958280115 0.4197003250966805376620528
0.5195957052889665916950435 -0.03414212128424244652169506 0.433846219030718460718532
0.5195957052889665916950435 0.03414212128424243264390725 0.433846219030718460718532
0.5338462190307184940252228 0.03414212128424243958280115 0.4197003250966806486843552
0.5564416582931865917771574 -0.0480560642541902199864623 0.4029140985849161138432351
0.5529140985849161360476955 -0.0480560642541902199864623 0.4054348713175449092638303
0.552914098584916247069998 0.04805606425419024080314401 0.4054348713175449647749815
0.5564416582931865917771574 0.04805606425419024080314401 0.4029140985849162248655375
0.5580270872894457223623021 -0.04100094483764935709979582 0.4009719678729048997212203
0.5554714954540802551719025 -0.009611547250125794875086349 0.4019439357458097217268289
0.5580270872894457223623021 0.02177785033739777081907008 0.4009719678729048997212203
0.5519439357458097994424406 -0.01162512120140905130805109 0.4044647084784385171474241
0.5509719678729049219256808 0.01976427638611451265138186 0.4060135133381624905624108
0.5509719678729048109033783 -0.04301451878893261526748404 0.4060135133381624350512595
0.8484203288131874076682948 -0.01258921885568570382674114 0.4036183950923030172575068
0.8492101644065936927319171 0.01916444329083503983479631 0.4048672834043872126308372
0.8492101644065936927319171 -0.04434288100220644401883163 0.404867283404387157119686
0.8464063093282294669705834 -0.04842032881318739795384332 0.4028285594988967321938844
0.8464063093282294669705834 0.04842032881318742570941893 0.4028285594988967877050356
0.8456164737348231819069611 -0.01666666666666665602702935 0.401579671186812536820554
0.8436024542498652412092497 0.009479285323125564988178127 0.4007898355934063627792341
0.8436024542498652412092497 0.04281261865645889785891853 0.4007898355934063627792341
0.8754706188987176895821563 0.0007297651403314745800765539 0.4252591462416133727408862
0.8757826333046074829269401 -0.0001057363285522186399341751 0.4256768969760552079328875
0.882029236101956826132664 0.01259894192325080805594517 0.4340630984736647546284871
0.8879638244934163759936041 -0.004797489883747348138332001 0.4420315492368324106209343
0.8879638244934163759936041 0.0299953737302489815974571 0.4420315492368323551097831
0.8750538159190639486695318 -0.001563371099639221384336452 0.4249480795905117291866304
0.8666676144214546795296883 -0.01812430143775367596958858 0.4187063383269450378421084
0.8733310201984576526257342 -0.03406309847366482956854128 0.4274036064756561725808126
0.8666676144214544574850834 0.01812430143775366209180078 0.4187063383269450378421084
0.8733310201984576526257342 0.03406309847366482956854128 0.4274036064756561725808126
0.8750538159190638376472293 0.001563371099639186906707367 0.4249480795905117291866304
0.8747418015131742663470504 -0.000727869630755528123668141 0.4245303288560698939946292
0.8743249985335204144121235 0.0001057363285521843113828888 0.4242192622049683059515246
0.8659387970359110342499775 -0.01258921885568572290869938 0.4179775209414015035847001
0.8579693985179555060227585 0.004805317441736463301982241 0.4120468463289364557944339
0.8579693985179555060227585 -0.02998375515310788830269928 0.4120468463289364557944339
0.4956706359827715013821603 0.0146887275794463471878526 0.4690180915966747354772792
0.4913412719655430582754718 -0.01666666666666666990481716 0.4780149997724946198118801
0.4956706359827715013821603 -0.01864460575388698915233476 0.4690180915966747354772792
0.4829974351856055059251105 -2.100689320834921508464495e-05 0.4913412719655430027643206
0.4789829624228965077037401 -0.02469561219208476002262564 0.4956706359827715013821603
0.4789829624228963966814376 0.02465359840566807084205614 0.4956706359827715013821603
0.4895651223747161662203098 -0.041341271965543088806605 0.4762388501816676722455668
0.4812212855947786138699485 -0.041341271965543088806605 0.4895651223747160551980073
0.4812212855947786138699485 0.04134127196554308186771109 0.4895651223747161662203098
0.4895651223747160551980073 0.04134127196554308186771109 0.4762388501816677832678693
0.5052043351162787132579979 -0.048140216301651501951131 0.4527881821913638527021817
0.5027881821913638971111027 -0.048140216301651501951131 0.4561285766649821882268157
0.5027881821913638971111027 0.0481402163016515088900249 0.4561285766649821882268157
0.5052043351162787132579979 0.0481402163016515088900249 0.4527881821913638527021817
0.5057621976990037682142543 -0.04330791045182191822959794 0.4509298918491742025338453
0.5042759366232631990101254 -0.01183436081683707404021977 0.4518597836983484494766117
0.5057621976990037682142543 0.01963918881814776667971145 0.4509298918491742025338453
0.5018597836983484938855327 -0.009985877719430068244488297 0.4552001781719666739789432
0.5009298918491742469427663 0.0214876719155547742101664 0.4576106807964107625608108
0.5009298918491742469427663 -0.04145942735441490722969604 0.4576106807964107625608108
0.898424390656068494465103 -0.01106202688461504525518908 0.4543779292349572895837184
0.8992121953280342028236305 0.02069569710478688651100754 0.4563924444540173319673215
0.8992121953280342028236305 -0.04281975087401697355193875 0.4563924444540173874784728
0.8971783329563263187367284 -0.0484243906560686068751842 0.4535901245629916367363421
0.8971783329563263187367284 0.0484243906560686068751842 0.4535901245629914702028884
0.8963905282843606103782008 -0.01666666666666667337426411 0.4515756093439314833304365
0.8951444705846183236275238 0.01102333257931941562501876 0.4507878046719656639496066
0.8951444705846183236275238 0.04435666591265275543465307 0.4507878046719656639496066
0.921802679143667980099508 -0.02361290431669180525653395 0.4954155834603598540510916
0.9177779643812942200753469 0.0005515959373612588098959031 0.4908311669207197636133344
0.921802679143667980099508 0.02471609619141432526157054 0.4954155834603598540510916
0.9131935478416540741264384 -0.04083116692071973863331635 0.4815512366847190528496014
0.9131935478416540741264384 0.04083116692071973169442245 0.4815512366847189973384502
0.9045844165396400571310664 0.01310247336943802520803359 0.4676868899090781406258088
0.9091688330792802030799749 -0.01106202688461504525518908 0.4769668201450789624118443
0.9045844165396400571310664 -0.0352265271386681122489648 0.4676868899090782516481113
0.4573695558603065869363036 -0.04052201226448627624510124 0.5478915681247926716679331
0.4568474257429638862859633 -0.01140554268156719099069907 0.5457831362495855209715501
0.4573695558603065869363036 0.0177109269013518873248092 0.5478915681247926716679331
0.4688357439989452868367437 -0.04137973642658109713066139 0.5105129141122159985854978
0.4626213459874232158952623 -0.03716287267616684431015273 0.5250711489036754553438868
0.4609417761932635415611514 -0.04578313624958574301615499 0.5374276837836327036512785
0.4626213459874232158952623 0.03716287267616685818794053 0.5250711489036755663661893
0.4609417761932635415611514 0.0457831362495857568939428 0.5374276837836327036512785
0.4688357439989452868367437 0.0413797364265811110084492 0.5105129141122159985854978
0.4709557915601677025030369 -0.02473407665312277875502289 0.5043101317867093591473804
0.4669430934601480065460066 -2.10068932083434315436811e-05 0.5086202635734188293170632
0.4709557915601677025030369 0.02469206286670609651334729 0.5043101317867093591473804
0.4607286954486259356045252 0.01244980291625242402320239 0.5231784983648783970977547
0.4585269955371236716423766 -0.008046403093247764259920984 0.5334266013696283836864609
0.9397550698789445267067322 0.01275521367232874958563826 0.5230001437933837760141387
0.9419439451937188234609266 -0.008377463042780468327475063 0.5335664821509383815012484
0.9435911990122619608101218 0.01167197067986635618253022 0.5460885470056618951062433
0.9430495775160308014051225 -0.01774990965912905463430782 0.5480442735028308032241284
0.9430495775160308014051225 0.04109385101886176699936826 0.5480442735028309142464309
0.9401522664156747310926221 -0.03779934338177588087903658 0.5317748033728941781106414
0.9340504575481909377288048 -0.04171079637611380119821547 0.517063863203396589796057
0.9417995202342176463972123 -0.04608854700566207551748477 0.5442968682276178027379387
0.9417995202342176463972123 0.04608854700566208939527257 0.5442968682276176917156363
0.9358421363262350300971093 0.03779934338177588781793048 0.5188555419814406821643615
0.9362393328629652344829992 0.04608854700566208939527257 0.5276302015609510842608643
0.9336532610114609553875198 -0.01666666666666666296592325 0.5082892036238861876995543
0.929740327458751236733292 -0.007737607686524934635929895 0.5041446018119430938497771
0.929740327458751236733292 0.02559572564680840170425746 0.5041446018119430938497771
0.4519486115072178789020541 -0.04764507160603109747754047 0.5995936831132491207085877
0.4515837810837353138992967 -0.01512437204619958459883566 0.5991873662264982636216359
0.4519486115072179899243565 0.0173963275136319317493161 0.5995936831132491207085877
0.4562373321838305573194816 -0.04751953824857969160833093 0.5536067701912806837682979
0.4540130870780316740820126 -0.04670690447507787335101881 0.5698671199711965451584206
0.4535440035125550828354335 -0.04918736622649817064045763 0.5852935557621530282546018
0.4540130870780316740820126 0.04670690447507789416770052 0.5698671199711964341361181
0.4535440035125550828354335 0.04918736622649819145713934 0.5852935557621531392769043
0.4562373321838305018083304 0.04751953824857969854722484 0.5536067701912805727459954
0.4565013548608095605985113 -0.04225841426348023177617108 0.5512402308757099467229068
0.4551110237439699446326813 -0.01140554268156719272542254 0.5524804617514200710814976
0.4565013548608095605985113 0.01944732890034583938643209 0.5512402308757098357006043
0.4528867786381711724175148 0.01585403289316485511695198 0.5687408115313359324716203
0.4520528646492119051458758 -0.01418620491524636220703748 0.5837609304355415584808497
0.9472574035141523296488231 0.01588579822142096795167809 0.5686283947072685585055751
0.9480430504231418531446707 -0.01431450440344187238772555 0.5837285460197000341864282
0.9484718017327820049899856 0.01517200702272199913656081 0.5992191315547543695174681
0.9481149061334326333394529 -0.01738045786536562484214663 0.5996095657773772291676551
0.948114906133432411294848 0.0477244719108096196458213 0.5996095657773772291676551
0.9475987619724273169907747 -0.0468669692915295033053269 0.5832842575689853870102297
0.9454918482016499980957747 -0.04764783773677520872791291 0.5670080251249416392056446
0.9480275132820673578137871 -0.04921913155475427653628984 0.5987748431040398333635721
0.9480275132820674688360896 0.04921913155475430429186545 0.5987748431040398333635721
0.9459361366523646452719731 0.04686696929152951718311471 0.5674523135756561753595406
0.9462774951106395215916223 0.04921913155475430429186545 0.5821081764373731148864977
0.9451504897433751217761255 -0.01666666666666665602702935 0.5523521622632246996786876
0.9438292228815872153546707 0.009319808416641581216843804 0.5511760811316122055103506
0.9438292228815872153546707 0.04265314174997492102647811 0.5511760811316122055103506
0.4562149037167955722971158 -0.04260193393964417651886833 0.6488168376564396044869909
0.4548821953737381407201212 -0.01163492529343135295505363 0.6476336753128794088141262
0.4562149037167955722971158 0.01933208335278146713931413 0.6488168376564398265315958
0.4520347215523550787885654 -0.04919547636702922832618867 0.6012635742421216233921655
0.4524467365856817968605696 -0.04682915167990872595815688 0.6167470785652280351740728
0.4545603454558140854580017 -0.04763367531287948652973796 0.6330114834154092484652665
0.4524467365856817968605696 0.04682915167990873289705078 0.6167470785652280351740728
0.4545603454558140299468505 0.04763367531287948652973796 0.633011483415409359487569
0.4520347215523550787885654 0.04919547636702924220397648 0.6012635742421216233921655
0.4519445564369524159786806 -0.04765318174656216210216542 0.6004022618164854829814203
0.4515756709432042215190961 -0.01512437204619958459883566 0.6008045236329708771449987
0.4519445564369524159786806 0.01740443765416298943504714 0.6004022618164854829814203
0.4519876859765310506134028 0.01430034197954616233261493 0.6162880279560771779046036
0.4527685865036058521226892 -0.01586214303369590239434217 0.631369270462698306545235
0.9480306073330858618319894 0.01429718999897265294118931 0.6162665826658866308207507
0.9472381961657723170588952 -0.01588201233359962799562837 0.631356183832172845882269
0.9451237535579656290352091 0.01165312711798627276493789 0.6476305233323059740158101
0.9438017221174725968069197 -0.01931072954765303273383381 0.6488152616661528870878328
0.9438017221174725968069197 0.0426169837836255782637096 0.6488152616661528870878328
0.946155406067931914471103 -0.04684586899923894043329398 0.6302733937343323322721744
0.9465928145798067072647086 -0.04921534566693296086636877 0.6147914654015127489117276
0.9440409634601252264474169 -0.04763052333230596846469496 0.6465477332344655714280179
0.9440409634601252264474169 0.04763052333230597540358886 0.646547733234465349383413
0.9476756046776471098525008 0.04684586899923896124997569 0.6158742554993531514995198
0.9458004034124931624916144 0.04763052333230598234248276 0.6298810665677988529509435
0.948468015844960654625595 -0.0166666666666666525575824 0.6007846543330670474603039
0.9481130131895219026461064 0.01438735268965497283988331 0.6003923271665335681390729
0.9481130131895219026461064 0.04772068602298830397590024 0.6003923271665335681390729
0.4705538553082395658577752 -0.0252513745520979923653293 0.6958052298603376595309555
0.4665690828636133158369148 -0.0003075814980894539811713539 0.6916104597206752524485296
0.4705538553082395658577752 0.02463621155591909708815201 0.6958052298603375485086531
0.4583096009895782363408046 -0.04603736199588455424436262 0.6557937303029605091708731
0.4599885004426229606622201 -0.03764782171655976783508635 0.6682656268299648205655217
0.4661867240248538379887577 -0.04161045972067520942738739 0.6829509744945738702881499
0.4599885004426229606622201 0.03764782171655976783508635 0.6682656268299648205655217
0.4661867240248538379887577 0.04161045972067521636628129 0.6829509744945738702881499
0.4583096009895782363408046 0.04603736199588455424436262 0.6557937303029606201931756
0.4570130603752929343563949 -0.04100562062264924423349299 0.6519813190020575799366043
0.4564785086907330313721332 -0.01163492529343135989394753 0.653962638004115359713353
0.4570130603752929343563949 0.01773577003578653138449184 0.6519813190020576909589067
0.4581574081437777001823974 0.008277126387341874821923504 0.666434534531119560085699
0.4603708592813823274880747 -0.01270402866255122484306916 0.6769251120560660917035989
0.9419626255242550261215229 0.008419096053315150082752005 0.6664564705290600965525982
0.9397956348021138106574313 -0.01275307749759741274275804 0.6770425573045164568952714
0.9337462370620587259750778 0.0006542820174869391509214767 0.6917524293866482709702836
0.929863830044144634712211 -0.02443148070249486630833857 0.6958762146933239467472276
0.929863830044144634712211 0.02574004473746873550288328 0.6958762146933241687918326
0.9379014400182548172324459 -0.03783884021757922405670982 0.6751483625206573524479836
0.9395184555505903256644729 -0.0460864108309307490829454 0.662605481160666531792458
0.9318520422781997325500924 -0.04175242938664845693264027 0.6898582346027893885676008
0.9318520422781997325500924 0.04175242938664847774932198 0.6898582346027893885676008
0.9414126503344493190894582 0.03783884021757923793449763 0.6644996759445254141951409
0.9373514648284493322449862 0.04175242938664847081042808 0.6731915679361227811128288
0.9435796410565906455758522 -0.01666666666666665602702935 0.6539135891690692758970727
0.9430296658667849385437876 0.007739537948917037286922227 0.6519567945845345935396153
0.9430296658667849385437876 0.04107287128225036582085394 0.6519567945845345935396153
0.4911174003881044747288342 0.01010300294431626388913514 0.722267434417386944289774
0.4955587001940522373644171 0.03455373666575405067202809 0.7312109694169306450817203
0.4955587001940522373644171 -0.0143477307771215298326517 0.7312109694169306450817203
0.487071576111674175990629 -0.04111740038810444280992229 0.7178261346114391816541911
0.487071576111674175990629 0.041117400388104463626604 0.7178261346114391816541911
0.4826302763057264133550461 -0.01666666666666664908813544 0.7088825996118954808622448
0.4785844520292961146168409 -0.009190181109984981583371777 0.7044412998059478292489644
0.4785844520292961146168409 0.02414315222334834781792168 0.7044412998059478292489644
0.5057574487097200588436863 -0.04331628231781559784652202 0.7490737310275356053423934
0.5042681278135564548747993 -0.01183548692941088255337068 0.7481474620550712106847868
0.5057574487097200588436863 0.01964530845899383273978067 0.7490737310275356053423934
0.5033418588410920602171927 -0.04814746205507137999379808 0.7457918991663603502928481
0.5033418588410921712394952 0.04814746205507139387158588 0.7457918991663603502928481
0.5009262689724642836353041 0.04158379833272097397811606 0.7425100673051852062656053
0.5018525379449285672706083 0.01010300294431625695024124 0.744865630193896066657544
0.5009262689724642836353041 -0.02137779244408846701652749 0.7425100673051852062656053
0.8992835089670060400024454 0.04346867680578377080014008 0.7441851678387776392042952
0.8985670179340121688227327 -0.0166666666666666664353702 0.7460178473698980683437298
0.8992835089670060400024454 0.01013534347245043445995272 0.7441851678387776392042952
0.8967325653078571656706686 0.01299776141435660462009061 0.7485670179340122576405747
0.8956146037146959226760146 -0.01890258985298904834126965 0.7492835089670061288202874
0.8956146037146961447206195 0.04489811268170225411200391 0.7492835089670061288202874
0.8978538458389382359570163 -0.04856701793401231592728351 0.7453046752748241354780134
0.8960193932127832328049521 -0.04856701793401231592728351 0.7478538458389383247748583
0.8960193932127832328049521 0.04856701793401232980507132 0.7478538458389383247748583
0.8978538458389382359570163 0.04856701793401232980507132 0.7453046752748241354780134
0.9196266154753134358657007 -0.04068553407619011214046978 0.7109661411332366398596605
0.9109661411332365954507395 -0.04068553407619011214046978 0.7250836372357891690398901
0.9109661411332368174953444 0.04068553407619011907936368 0.7250836372357891690398901
0.9196266154753135468880032 0.04068553407619011907936368 0.710966141133236750881963
0.9219781816460586032491165 -0.02336458539203652498561503 0.7046572329619047447835101
0.9179749402658866630488887 0.0006542820174869264657560586 0.709314465923809756020546
0.9219781816460586032491165 0.02467314942701038030237193 0.704657232961904966828115
0.9093144659238097116116251 0.01156832553843810743043896 0.7234319620263622852007757
0.9046572329619048113968915 0.03558719294796156007443244 0.7328922251670096921216668
0.9046572329619048113968915 -0.01245054187108533827466061 0.7328922251670096921216668
0.5344146616582604591982886 0.01188554924504555722342136 0.7798614462975956840296021
0.5422073308291301962924535 0.02963354423663938641553273 0.7863448850825820457544069
0.5422073308291301962924535 -0.005862445746548279774945645 0.7863448850825820457544069
0.5279562540310913654195701 -0.03441466165826049389275809 0.7720687771267258359131347
0.5279562540310913654195701 0.0344146616582605077705459 0.7720687771267258359131347
0.5201635848602216283254052 -0.01666666666666665602702935 0.76558533834173947418833
0.5137051772330526455689892 -0.02742082527115037582365886 0.757792669170869737094165
0.5137051772330526455689892 0.005912508062182953577634592 0.757792669170869737094165
0.5573978646620560972735348 -0.041685964211824029501674 0.7990838288738799644050914
0.5550731890202080798246698 -0.01018497313073068490096862 0.7981676577477598844012618
0.5573978646620560972735348 0.02131601795036267010807762 0.7990838288738801864496963
0.5541570178940879998208402 -0.04816765774776000930135211 0.7966932701630693447469866
0.5541570178940879998208402 0.04816765774776000930135211 0.7966932701630695667915916
0.5509161711261200133904481 0.04338654032613889488523284 0.7943027114522589471334868
0.5518323422522399823719752 0.01188554924504554334563355 0.795777099036949486787762
0.5509161711261200133904481 -0.01961544183604779778562488 0.7943027114522589471334868
0.8493338904323490812231512 0.04524806718999408589043654 0.795914176757644975523931
0.8486677808646985177176703 -0.01666666666666666990481716 0.7969579240273462206189947
0.8493338904323493032677561 0.0119147338566607478155257 0.795914176757644975523931
0.846330558907565699833242 0.01199222275240102893179017 0.7986677808646983622864468
0.8446594465180836674988996 -0.02000889144563069640958552 0.7993338904323491478365327
0.8446594465180836674988996 0.04399333695043276815095368 0.7993338904323492588588351
0.8480040403157419470758782 -0.04866778086469839698091633 0.7962941834783895389549002
0.8456668183586091291914499 -0.04866778086469839698091633 0.7980040403157416806223523
0.8456668183586091291914499 0.04866778086469840391981023 0.7980040403157420136892597
0.8480040403157419470758782 0.04866778086469840391981023 0.7962941834783896499772027
0.8802074516506630530443545 0.000812415361807537414473579 0.7706049637111443972870006
0.8782130373466872086396506 -0.004801243969759233162775125 0.7734117933769277808409015
0.8732750773492412577070354 -0.005074676025132665233008389 0.7783497533743737317735167
0.870331531655771151179124 0.0008124153618075224524835987 0.7804808837060362991522311
0.8779052731835039757868344 -0.0222803259982334231348311 0.7731040292137445479880853
0.8839979462097784512764065 -0.03813457730309258858492072 0.7643644881995076412195544
0.8645355363350041288938996 -0.02255375805360686214395827 0.7845670221894511797700034
0.8671713178652910025689948 -0.03414574869514082344768013 0.7821281276946054905607753
0.8729673131860580248542192 0.02255375805360688296063998 0.7780419892111904989207005
0.8642277721718208960410834 0.03840800935846602759404789 0.7842592580262681689617921
0.8843057103729616841292227 0.02228032599823347170708843 0.7646722523626907630500682
0.8820035319058026068717027 0.03414574869514086508104356 0.7671713178652910247734553
0.8863001246769375285339265 -0.0166666666666666525575824 0.7618654226969072684738649
0.8903983833992361596187948 0.001132338717449209945092869 0.7559327113484536342369324
0.8903983833992361596187948 0.03446567205078254758632283 0.7559327113484536342369324
0.8557959953207670000807639 0.03498829568376170956467419 0.79078429100452862776649
0.8615919906415340223659882 0.01324695299196234493654956 0.7866981525211138581710202
0.8557959953207670000807639 -0.008494389699837007548510748 0.79078429100452862776649
0.5910479976353226749807845 0.0003656496239415954474516468 0.8174681605099813896941896
0.5955239988176613818993133 0.02474698059259761856454318 0.8215083174729469472907795
0.5955239988176613818993133 -0.02401568134471442420019294 0.8215083174729469472907795
0.5820981789189627608749333 -0.04104799763532268608301479 0.8129921593276427937979633
0.5820981789189627608749333 0.04104799763532268608301479 0.8129921593276427937979633