# geometry NO_DATA 580
#  x  y  z
0.5429694303379810627063762 0.007816582027885795105892619 0.3148471516899046807047569
0.5359388606759621920261338 -0.0166666666666666664353702 0.3218777213519239954742091
0.5429694303379810627063762 -0.02551675130544753949957126 0.3148471516899046251936056
0.5218777213519245616879516 -0.01145561198140857168958906 0.3359388606759622364350548
0.5148471516899058020300117 -0.03072780599070414411788654 0.3429694303379811071152972
0.5148471516899058020300117 0.007816582027887011147049279 0.3429694303379811071152972
0.5289082910139430993012866 -0.03593886067596224059839116 0.314847151689904958260513
0.5148471516899055799854068 -0.03593886067596224059839116 0.3289082910139431992213588
0.5148471516899054689631043 0.03593886067596224753728507 0.3289082910139431992213588
0.5289082910139430993012866 0.03593886067596224753728507 0.314847151689904958260513
0.5920057941345688856671359 0.002034764807413921849921223 0.3100289706728449612427312
0.5840115882691379045610347 -0.01666666666666667337426411 0.3180231765382759423488324
0.5920057941345688856671359 -0.03129856852591941795971309 0.3100289706728449612427312
0.5743754912644902788088075 -0.002605527342628425474524434 0.3269810186071188673473387
0.5727336001252738562072864 0.0006782549358046662760918233 0.3279446548105307557285926
0.5760173824037069234549335 -0.0340115882691380058688857 0.3100289706728449612427312
0.5657030304632547634824391 -0.01995044894509975796914603 0.3209140851485116074925941
0.5593507157370403160001615 -0.0340115882691379989299918 0.3119562430796687935163902
0.5663812853990594087250088 0.01995044894509975449969907 0.3189868127416878862412375
0.5577088245978237823763379 0.03593886067596175487581789 0.3129198792830807374087954
0.5760173824037069234549335 0.0340115882691380058688857 0.3100289706728450167538824
0.5570305696620190261114658 0.007816582027885302444425442 0.3148471516899044031490007
0.5640611393240382298586155 -0.01145561198140978599602224 0.3218777213519235513849992
0.5570305696620191371337683 -0.03072780599070486576285255 0.3148471516899044031490007
0.641865588228629713185569 0.001193529371778502112116938 0.3093279411431487657679895
0.6337311764572592931443751 -0.01666666666666665602702935 0.317462352914519074786881
0.641865588228629713185569 -0.0321398039615548303249426 0.3093279411431488212791407
0.6250587156560236667957042 -0.0006782549358046020913232121 0.3257369705918284896739578
0.6245206666261583494659249 0.0003978431239261809413028381 0.3258771764977677065644457
0.6255967646858892061700885 -0.03373117645725949576007707 0.3093279411431487657679895
0.6165264607607273683598237 -0.01774276472639744334225398 0.3178829706323367254583445
0.608930098019222487693014 -0.03373117645725949576007707 0.3096083529550271995489652
0.6169243038846534687991152 0.01774276472639746068948874 0.3176025588204582361662176
0.6083920489893570593409322 0.03401158826913795729662837 0.309748558860966416439453
0.6255967646858892061700885 0.03373117645725950963786488 0.3093279411431487657679895
0.6079942058654310699239431 0.002034764807413873277663896 0.3100289706728449612427312
0.6159884117308620510300443 -0.01531015679505740717525342 0.3180231765382759423488324
0.6079942058654309589016407 -0.03265507839752869456706463 0.31002897067284490573158
0.6918420752772158621723975 0.00105245166329405600257052 0.3092103763860784004791071
0.683684150554431546709111 -0.01666666666666666296592325 0.3173683011088627159423936
0.6918420752772158621723975 -0.03228088167003928532494683 0.3092103763860784004791071
0.6751518956591350262286255 -0.0003978431239261543241395036 0.3255497387830611488723775
0.6747775654866228212114265 0.0003508172210980244499350933 0.3255732517344752108279238
0.6755262258316472312458245 -0.033684150554431344093409 0.3092103763860784004791071
0.6666431537152526232148375 -0.01741532701169084054737546 0.3174388399631050128313348
0.6588595591649804017464476 -0.033684150554431344093409 0.3092574022889065799013508
0.666993970936350710765339 0.01741532701169085442516327 0.3173918140602768334090911
0.658485228992468307751551 0.03373117645725950269897098 0.3092809152403206418568971
0.6755262258316470092012196 0.0336841505544313579711968 0.3092103763860784004791071
0.658134411771370331223352 0.001193529371778495606903903 0.3093279411431488212791407
0.666268823542740529219941 -0.01587098041881433024835601 0.317462352914519074786881
0.658134411771370331223352 -0.03293549020940716304250984 0.309327941143148876790292
0.7418628985079922522061224 0.001177391047953144781468282 0.3093144925399609612703955
0.7337257970159845044122449 -0.0166666666666666664353702 0.3174515940319687645754243
0.7418628985079922522061224 -0.03215594228538018461982517 0.3093144925399609612703955
0.7252170550721022124207593 -0.0003508172210980206552274896 0.3255678722932000557221954
0.7248454146202276682231513 0.0003924636826510439959608822 0.3255470490624235435639378
0.7255886955239765345737624 -0.03372579701598438228771215 0.3093144925399609612703955
0.7166874898974433527598649 -0.01740994757041573748335139 0.3173891243396392281006513
0.7089220288573101491635953 -0.03372579701598438228771215 0.3092728460784079369538802
0.7170799535800944646268817 0.01740994757041573054445749 0.3174307708011922524171666
0.7085503884054356049659873 0.0336841505544313579711968 0.3092520228476314247956225
0.7255886955239765345737624 0.03372579701598438228771215 0.3093144925399609612703955
0.7081579247227844930989704 0.001052451663294052099442699 0.3092103763860784004791071
0.7163158494455688085622569 -0.01596503222447063358169217 0.3173683011088627159423936
0.7081579247227844930989704 -0.03298251611223532164807182 0.3092103763860784004791071
0.7919886377881828476432702 0.001931826729097143322336216 0.3099431889409143270341929
0.7839772755763656508776194 -0.0166666666666666594964763 0.3179545511527314682886924
0.7919886377881828476432702 -0.0314015066042361845610742 0.3099431889409143270341929
0.7754477104017066801944225 -0.000392463682651040418093713 0.3258401740843579474926628
0.7749295074388650172991788 0.0006439422430323866368764851 0.3257144348041672854421336
0.7759659133645486761565735 -0.0339772755763657063887706 0.3099431889409142715230416
0.7667924059468572695053012 -0.01770307259235008590092519 0.3175773333121594266259535
0.7592992466978817356348941 -0.0339772755763657063887706 0.3096917103805329474219832
0.7674363481898895944510741 0.01770307259235010324815995 0.317828811872540750727012
0.7587810437350400727396504 0.03372579701598438922660605 0.309565971100342285371454
0.7759659133645486761565735 0.03397727557636572026655841 0.3099431889409143270341929
0.7581371014920077477938776 0.001177391047953148250915234 0.3093144925399609612703955
0.7662742029840154955877551 -0.01588173930136456413197976 0.3174515940319687645754243
0.7581371014920077477938776 -0.03294086965068227651487476 0.3093144925399609612703955
0.8428229127525777020224496 0.006937476515466019406919163 0.3141145637628883768854848
0.8356458255051554262493596 -0.01666666666666666296592325 0.3212916510103106526585748
0.8428229127525777020224496 -0.02639585681786731433118298 0.3141145637628883768854848
0.8269905210503060155602384 -0.000643942243032375252753674 0.3276344632933381739725576
0.8255123038428787696219047 0.002312492171822007770015661 0.3268001883289433640022992
0.8284687382577331504762697 -0.03564582550515532632928739 0.3141145637628883768854848
0.8175009416310615728562539 -0.01962310108152104382028824 0.3187888261171262227477996
0.8118020715910665430214976 -0.03564582550515532632928739 0.312446013834098756944968
0.8198134338028835177425435 0.01962310108152105075918215 0.3204573760459158426883164
0.8103238543836392970831639 0.0339772755763657063887706 0.3116117388697039469747097
0.8284687382577331504762697 0.0356458255051553402070752 0.3141145637628883768854848
0.8080113622118172411745718 0.001931826729097141370772306 0.3099431889409143270341929
0.8160227244236344379402226 -0.01537878218060190205207505 0.3179545511527314127775412
0.8080113622118172411745718 -0.0326893910903009454749224 0.3099431889409143270341929
0.8858854362371115787055942 -0.006937476515466006396493093 0.3428229127525775910001471
0.8787083489896893029325042 0.01204168232302266564048843 0.3356458255051553152270571
0.8858854362371115787055942 0.03102084116151133941219342 0.3428229127525777020224496
0.8715312617422670271594143 -0.03564582550515533326818129 0.328468738257732983942816
0.8715312617422670271594143 0.0356458255051553402070752 0.328468738257732983942816
0.8571770872474223645909319 0.006937476515466022009004377 0.3141145637628883768854848
0.8643541744948446403640219 -0.01204168232302264829325367 0.3212916510103106526585748
0.8571770872474223645909319 -0.03102084116151131859551171 0.3141145637628883768854848
0.4923594781798836805819519 0.004156869079301252732638883 0.3617973908994175369358004
0.4847189563597672501416014 -0.01666666666666664214924154 0.3694379127195341894207559
0.4923594781798836805819519 -0.02917646425403207927073979 0.3617973908994175369358004
0.4694379127195343892609003 -0.01389542061379896165096426 0.3847189563597671613237594
0.4617973908994179588205498 -0.03194771030689955160219995 0.39235947817988359176411
0.4617973908994179588205498 0.00415686907930161182039841 0.39235947817988359176411
0.4770784345396510417458558 -0.03471895635976723903937113 0.3617973908994179810250102
0.4617973908994181808651547 -0.03471895635976723210047723 0.377078434539651008439165
0.4617973908994182363763059 0.03471895635976725985605285 0.3770784345396509529280138
0.4770784345396510417458558 0.03471895635976726679494675 0.3617973908994179810250102
0.5277975067628625227555972 0.0003839588404688215454198252 0.372586452077606211652494
0.5266867225117828343883275 -0.002605527342628174373301286 0.3740811951691547787568481
0.5246911473272520831656607 -0.001385623026433142890301298 0.3760767703536854189572125
0.523806356393801131332566 0.0003839588404688214912097166 0.3765776024466676585866765
0.5185453685986840532962105 -0.01965615284976364104951863 0.36593984125605594215358
0.5126255831877453150724477 -0.03593886067596153283121296 0.3574145285024881713020761
0.5161658345736844788476105 -0.01843624853356860826547603 0.3689370806265513391686284
0.5089092715940366495885883 -0.03371729217380210752441627 0.3602948946204703739581987
0.5165497934141534130958462 0.01843624853356865683773336 0.3679354164405865823539443
0.5080244806605855867331911 0.03471895635976653127219294 0.3607957267134525580765114
0.5207669371008440961645647 0.01965615284976368962177595 0.3655558824155869523941931
0.5115147989366657377274805 0.03371729217380214221888579 0.3589092715940367384064302
0.5218777213519238955541368 -0.01666666666666664214924154 0.3640611393240384963121414
0.5148471516899054689631043 -0.02551675130544701214363457 0.3570305696620191815426892
0.5148471516899054689631043 0.00781658202788632072710584 0.3570305696620191815426892
0.5076405218201167635072579 0.004156869079300515475161593 0.3617973908994172593800442
0.5152810436402335270145159 -0.01389542061379932247344726 0.3694379127195335787980923
0.5076405218201167635072579 -0.03194771030689916996303523 0.3617973908994172593800442
0.8923301612434766383330498 0.003980967460860608542194683 0.3616508062173838244923729
0.884660322486953476506244 -0.0166666666666666664353702 0.3693206449739070973414812
0.8923301612434766383330498 -0.02935236587247272779799268 0.3616508062173838244923729
0.8761408336498549553894577 -0.0003723110075304547281205281 0.3765131446573855011905607
0.8752911835692795960994772 0.001326989153620204003880545 0.3760358055843405766793808
0.8805280896524104727873805 -0.02030614799210887083669164 0.3661739151575656991965957
0.8900176690716545824244577 -0.034660322486953533405174 0.3603238170637635962023637
0.8743210929871338965568839 -0.004011792332972660864165437 0.3746934039946643313356844
0.8743210929871338965568839 0.004011792332972666935697603 0.3746934039946643313356844
0.8805280896524104727873805 0.02030614799210887777558554 0.3661739151575658102188982
0.8900176690716545824244577 0.0346603224869535403440679 0.3603238170637637072246662
0.8858854362371115787055942 -0.006937476515466008131216569 0.3571770872474223090797807
0.8787083489896893029325042 0.01204168232302266390576495 0.3643541744948446958751731
0.8858854362371115787055942 0.03102084116151133247329952 0.3571770872474223645909319
0.8725013523244127267020076 0.0003723110075304602033414991 0.3728736633319432169919594
0.8734714429065585372669034 -0.002312492171822002565845233 0.3742160649216194068245045
0.9383491937826159423607919 -0.003980967460860601603300779 0.392330161243476693844201
0.9306793550260927805339861 0.01401268835942626189705607 0.384660322486953476506244
0.9383491937826159423607919 0.03200634417971313233630681 0.392330161243476693844201
0.9230095162695695076848779 -0.0346603224869535403440679 0.3769904837304302036571357
0.9230095162695695076848779 0.034660322486953533405174 0.3769904837304303146794382
0.9076698387565231840312663 0.003980967460860603338024255 0.3616508062173838244923729
0.9153396775130462348357696 -0.01401268835942627057067345 0.3693206449739070418303299
0.9076698387565231840312663 -0.03200634417971313927520072 0.3616508062173838244923729
0.4429078159672935055546361 0.007446895803761231433237633 0.4145390798364675388754108
0.435815631934587000007042 -0.01666666666666665602702935 0.4216312638691740444230049
0.4429078159672935055546361 -0.0258864375295720997027793 0.4145390798364675388754108
0.4216312638691737113560976 -0.01170206946415986576370827 0.4358156319345869444958907
0.4145390798364670392750497 -0.0308510347320802603976464 0.4429078159672934500434849
0.4145390798364669837638985 0.007446895803760523666059434 0.4429078159672934500434849
0.4287234479018809940598089 -0.03581563193458705413041443 0.4145390798364680939869231
0.4145390798364677609200157 -0.03581563193458706106930833 0.4287234479018809940598089
0.4145390798364677609200157 0.03581563193458706106930833 0.4287234479018809940598089
0.4287234479018809940598089 0.03581563193458706106930833 0.4145390798364680939869231
0.4765761975193155142171975 0.0003811489857649203111603087 0.4238049514664492534166129
0.4760739604989814299784712 -0.00138562302643317628372821 0.424688337472548305129294
0.4741399996851384246454586 -0.002482298601252647465842394 0.4266222982863911994400041
0.4727082758916297255957772 0.0003811489857649197690592224 0.4276728730941350420380331
0.4679312016585306932547894 -0.01843343867886475945239155 0.4165455786320975684056123
0.460792916858748791142375 -0.03471895635976650351661732 0.4080216708058817531856732
0.465616091858922720447822 -0.01953011425368422759873965 0.4205806890614290916019513
0.4589050568119808493072753 -0.03371448231909824483354399 0.411387355413234623302543
0.4659972408446877989440793 0.01953011425368423106818661 0.4184795394459404627163224
0.4574733330184720392352915 0.03581563193458597860185932 0.4124379302209784103894208
0.4689356756991994723549055 0.01843343867886475945239155 0.416164429646332489909355
0.4602906798384146513924975 0.03371448231909825177243789 0.4089050568119808048983543
0.4694379127195336121047831 -0.01666666666666666296592325 0.4152810436402334381966739
0.4617973908994175147313399 -0.02917646425403246437935145 0.407640521820116674689416
0.4617973908994175147313399 0.00415686907930086155249505 0.407640521820116674689416
0.4570921840327069607390342 0.007446895803760151567873837 0.4145390798364670392750497
0.4641843680654139658869894 -0.01170206946415916146597702 0.4216312638691729341999803
0.4570921840327069607390342 -0.03085103473207847363246614 0.4145390798364670392750497
0.9428208842915817289309643 0.006925305749492235291020492 0.4141044214579101545581352
0.9356417685831638353377571 -0.01666666666666666990481716 0.421283537166328159173645
0.9428208842915817289309643 -0.02640802758384110104916687 0.4141044214579101545581352
0.92712233884929662330876 -0.0003721928010674080758435345 0.4274945316503644399119821
0.9257820248238475269175751 0.002308435249830737435311478 0.4265264104259827160348095
0.9324970672278182215464426 -0.02030209107011761437977526 0.417157389714771897892831
0.9414938951379615561521064 -0.03564176858316407681126492 0.411795986208079389800929
0.925304626647571293318606 -0.004007617204518353418163379 0.4256768194486389433883744
0.925304626647571293318606 0.004007617204518341275099047 0.4256768194486389433883744
0.9324970672278181105241401 0.02030209107011761091032831 0.417157389714771897892831
0.9414938951379615561521064 0.03564176858316407681126492 0.411795986208079389800929
0.9383491937826159423607919 -0.003980967460860599001215565 0.4076698387565231840312663
0.9306793550260926695116837 0.01401268835942626536650302 0.4153396775130464568803745
0.9383491937826159423607919 0.03200634417971313927520072 0.4076698387565231840312663
0.923486914445845741283847 0.0003721928010673956075185509 0.4238591072469134468647667
0.9239643126221221969274211 -0.001326989153620207907008366 0.4247086982242572195112018
0.9858955785420897566240228 -0.00692530574949223182157354 0.4428208842915820064867205
0.9787164628336718630308155 0.0120497961670051837584916 0.4356417685831640018712108
0.9858955785420897566240228 0.0310248980835025958691098 0.4428208842915820064867205
0.9715373471252537473930033 -0.03564176858316407681126492 0.428462652874745997255701
0.9715373471252537473930033 0.03564176858316408375015882 0.428462652874745997255701
0.9571791157084177381619838 0.006925305749492237025743968 0.4141044214579100435358328
0.964358231416835853799796 -0.01204979616700517508487422 0.4212835371663279926401913
0.9571791157084177381619838 -0.03102489808350258199132199 0.4141044214579100435358328
0.4278151123493903473793409 0.0006656274962752755557440776 0.4728505151468846978701777
0.4269067767969015325668636 -0.002482298601252906373321183 0.4744244781956488132834693
0.4179979216592171198385586 -0.01533541167411610513238163 0.4839989608296085821237398
0.4099974020740214664115797 -0.03266770583705805308660786 0.4919994804148042910618699
0.4099974020740214664115797 0.0019968824888258484596959 0.4919994804148042910618699
0.4189062572117060456733384 -0.01981459276419485215914307 0.4664239586104531598564904
0.4127224087314885769828265 -0.03581563193458623534093377 0.4577578115289822058286973
0.4099974020740216329450334 -0.03399896082960861959376686 0.4759984412444129842079121
0.4099974020740216329450334 0.03399896082960861959376686 0.4759984412444130397190634
0.4207229283166840638763517 0.01981459276419484522024916 0.4657583311141778037445249
0.4118140731789997621703492 0.03399896082960861959376686 0.4593317745777463767531401
0.4216312638691728786888291 -0.01666666666666667337426411 0.4641843680654136883312333
0.4145390798364665951858399 -0.02588643752957364013722596 0.4570921840327067942055805
0.4145390798364665951858399 0.007446895803759694468237917 0.4570921840327067942055805
0.990053392527655562460609 -0.001935928966813153795367697 0.491989321494468834217173
0.9820427140221245077000845 0.01537604735545789955142304 0.4839786429889376684343461
0.990053392527655562460609 0.03268802367772895289821378 0.491989321494468834217173
0.9858955785420896456017203 -0.03564176858316407681126492 0.4715373471252538029041546
0.9795480256307849131758303 -0.01962041157210179728731525 0.4801933352863893000872508
0.9883902669334292401259745 -0.03397864298893771978216094 0.4896808862446380694599668
0.9795480256307849131758303 0.01962041157210179728731525 0.4801933352863893000872508
0.9883902669334292401259745 0.03397864298893771978216094 0.4896808862446380694599668
0.9858955785420896456017203 0.03564176858316407681126492 0.4715373471252538029041546
0.9858955785420896456017203 -0.00692530574949223182157354 0.4571791157084179602065888
0.9787164628336717520085131 0.0120497961670051837584916 0.464358231416835853799796
0.9858955785420896456017203 0.0310248980835025958691098 0.4571791157084179602065888
0.9723689099223667975380181 0.0006453096556043869114205336 0.4730142195779712954717411
0.9732004727194800697276378 -0.002308435249830742639481906 0.4744910920306888990616301
0.4258635298233289789848754 0.0003958046541075108657771475 0.5245322748307783555787864
0.4257286184022451291930622 -0.0006656274962752147320022011 0.5250629909059697508766362
0.4174582759748817206713056 -0.01587505735845162746500137 0.5337291379874407049044294
0.4093228449686021619413623 -0.03293752867922580818138556 0.5418645689937202636343727
0.4093228449686021619413623 0.001187413962322548480893269 0.5418645689937202636343727
0.4175931873959655704631189 -0.01772809881704939111157771 0.5169275598996903031689953
0.4097275792318538223391045 -0.03399896082960855020482782 0.5083963242393032544441667
0.4093228449686022174525135 -0.03372913798744084368230745 0.525593706981161146174486
0.4093228449686022174525135 0.03372913798744084368230745 0.5255937069811612571967885
0.4178630102381333255578966 0.01772809881704939458102466 0.5165317552455827021518076
0.4095926678107699725472912 0.03372913798744084368230745 0.508927040314494538719714
0.4179979216592171753497098 -0.0166666666666666664353702 0.5160010391703913068539578
0.4099974020740215774338822 -0.03133645084450754902949399 0.5080005195851956534269789
0.4099974020740215774338822 0.001996882488825786443331634 0.5080005195851956534269789
0.9906888272093233860360328 -0.001173879061205045874066721 0.5418627062705284602728284
0.9825503541988687139507874 0.01588486681318545395980024 0.5337254125410570981813407
0.9906888272093233860360328 0.03294361268757595162526286 0.5418627062705284602728284
0.9900553033542714986836586 -0.03397864298893771978216094 0.5240339463432091005046232
0.9821712400726806402317948 -0.01770405552999488457688315 0.5325633192804043458679075
0.9904363283070756196480033 -0.03372541254105716757027977 0.541219307441539898562155
0.9821712400726806402317948 0.01770405552999488457688315 0.5325633192804043458679075
0.9904363283070756196480033 0.03372541254105716757027977 0.541219307441539898562155
0.9900553033542714986836586 0.03397864298893771978216094 0.5240339463432091005046232
0.990053392527655562460609 -0.001935928966813153795367697 0.5080106785055310547605245
0.9820427140221245077000845 0.01537604735545789955142304 0.516021357011062109521049
0.990053392527655562460609 0.03268802367772895289821378 0.5080106785055310547605245
0.9741586507405335382259182 0.000392079207723831230092415 0.5245507299482573548843334
0.9742852659644737345345789 -0.0006453096556043834419735816 0.5250694243799214344647908
0.4255705569044423430824509 0.0003495045006696913540873706 0.5747789475962272742748382
0.4255474068277234067636527 -0.0003958046541075015958485728 0.5751516021736159389732279
0.4173656756680060309072644 -0.01596765766532726865678526 0.583682837834003098720359
0.4092070945850075913696742 -0.03298382883266362530783056 0.5918414189170015937691005
0.4092070945850075913696742 0.001048513502009083223770469 0.5918414189170015937691005
0.4173888257447249672260625 -0.01741197582144386052371843 0.5669930210906174439244865
0.4092765448151643448149173 -0.03372913798744084368230745 0.5584849355069492204961534
0.4092070945850075913696742 -0.03368283783400302655586245 0.5755242567510046036716176
0.4092070945850075913696742 0.03368283783400302655586245 0.5755242567510046036716176
0.4174351258981627843525075 0.01741197582144386399316538 0.5666435165899477155448949
0.4092533947384454084961192 0.03368283783400302655586245 0.5588575900843377741722406
0.4174582759748817206713056 -0.0166666666666666664353702 0.5662708620125590508465052
0.4093228449686021619413623 -0.03214591937101079349714539 0.5581354310062794921165619
0.4093228449686021619413623 0.001187413962322543276722842 0.5581354310062794921165619
0.9908106671122807185270176 -0.001028381700595772888645607 0.5918390488128764115316471
0.9826467603368256309437356 0.01598304925849051288944125 0.5836780976257528452677548
0.9908106671122807185270176 0.03299448021757679649912376 0.5918390488128764115316471
0.9906980373213480906002815 -0.03372069439147172553727927 0.5744222705814219231967854
0.9825832217685455116651383 -0.01739879201722466933732747 0.5829279860609650754099675
0.990768426926859846481932 -0.03367809762575295351449967 0.5914549999233675858789638
0.9825832217685455116651383 0.01739879201722466933732747 0.5829279860609650754099675
0.990768426926859846481932 0.03367809762575295351449967 0.5914549999233675858789638
0.990698037321347979577979 0.03372069439147172553727927 0.5744222705814219231967854
0.9906911862841162319526234 -0.001169160911619601672661872 0.5581396528042639193500918
0.9825550723484541837393635 0.01588486681318545395980024 0.56627930560852812735817
0.9906911862841162319526234 0.03293889453799050959226236 0.5581396528042639193500918
0.9744402567956518268488253 0.000344764292419617228522416 0.5747850210880712795713521
0.9744615551785111851046395 -0.0003873610581383841013417002 0.575151083763350223776456
0.4255458028418862004293999 0.0003925966824331595631143721 0.624846793840546754772447
0.4255673489327678749027939 -0.0003495045006696773136692369 0.6252178444320981576254326
0.4174518600315328953342942 -0.01588147330180035565749819 0.6337259300157664920760681
0.4093148250394161302700979 -0.03294073665090017227763397 0.641862965007883201629113
0.4093148250394161302700979 0.001177790047299449253254133 0.641862965007883201629113
0.4174303139406512208609001 -0.01740876784976949295802306 0.6170808094399815590946901
0.4092501867667710513387647 -0.03368283783400301267807464 0.608551177765431661192963
0.4093148250394161857812492 -0.03372593001576647264716513 0.6255888950236496715007206
0.4093148250394161857812492 0.03372593001576647958605903 0.6255888950236496715007206
0.4173872217588877053806584 0.01740876784976951030525782 0.616688212757548370746008
0.4092717328576527258121587 0.03372593001576647958605903 0.6089222283569830640459486
0.4173656756680060309072644 -0.01666666666666665602702935 0.61631716216599685687072
0.4092070945850075358585229 -0.03228481983132423793758647 0.608158581082998472844281
0.4092070945850075913696742 0.001048513502009085825855683 0.608158581082998472844281
0.9907133018108865707418431 -0.001135798981458831236057705 0.6418491007923453617323162
0.9825829997169253093858288 0.01589573593656512864868979 0.6336982015846908122824743
0.9907133018108865707418431 0.03292727085458908853343729 0.6418491007923453617323162
0.9908197481138910633902128 -0.03365782923599811016224237 0.6244948901513125427698014
0.9826457893589672920597877 -0.01735603082068872676790861 0.6330106576103244897524291
0.9907559052785821496200924 -0.0336982015846906263201177 0.6415062388949902549839521
0.9826457893589672920597877 0.01735603082068873023735556 0.6330106576103244897524291
0.9907559052785821496200924 0.0336982015846906263201177 0.6415062388949902549839521
0.9908197481138910633902128 0.03365782923599811016224237 0.6244948901513125427698014
0.9908208013071579944863743 -0.001008113310840924982739186 0.6081710853820010420633935
0.9826670287265805159293564 0.01598304925849051288944125 0.616342170764001995308945
0.9908208013071579944863743 0.03297421182782195314686646 0.6081710853820010420633935
0.9744930699716567445989313 0.0003648682513572917688639274 0.6248579382230140533138751
0.9744728837973104518255241 -0.0003244959026647678047329537 0.6252026203000251580732538
0.4257197265161969390590002 0.0006542596675275769678437054 0.6749345331513302292947287
0.4258505580087441622083588 -0.0003925966824331705677664228 0.6754579613263107518150719
0.4179751860017210107756114 -0.01535814733161315094600585 0.6839875930008606497167989
0.4099689825021506917046565 -0.03267907366580740519124149 0.6919937965004302471427877
0.4099689825021506917046565 0.001962779002581120646464541 0.6919937965004302471427877
0.4178443545091746202935212 -0.01771352301662742351195945 0.6674517578267412654113855
0.4095764880245106320799664 -0.03372593001576648652495294 0.6587912946596442553826023
0.409968982502151524371925 -0.03398759300086093282367017 0.6759813895012911633131125
0.409968982502151524371925 0.03398759300086091894588236 0.6759813895012911633131125
0.417582691524080173994804 0.01771352301662739575638383 0.6667974981592137417862887
0.409707319517057855229325 0.03398759300086091894588236 0.659314722834624666880643
0.4174518600315329508454454 -0.01666666666666668031315801 0.666274069984233330288248
0.4093148250394161857812492 -0.03215554328603388578589062 0.6581370349921167317575055
0.4093148250394161857812492 0.001177790047299437977551539 0.6581370349921167317575055
0.9900642066609368630025756 -0.001922952006875635168683947 0.6919871586678125741087797
0.9820513653287493704979738 0.01538469866208290459663743 0.6839743173356251926264804
0.9900642066609368630025756 0.0326923493310414536860975 0.6919871586678124630864772
0.9906927220393488831007289 -0.03372565284151136932866422 0.6744115207377330278859517
0.9824243620699203427548696 -0.01769997017713658554738387 0.6830653460722123648807269
0.9903128711550507334848703 -0.03397431733562521899427722 0.691594839159634600100901
0.9824243620699203427548696 0.01769997017713656126125521 0.6830653460722122538584244
0.9903128711550507334848703 0.03397431733562520511648941 0.6915948391596344890785986
0.9906927220393488831007289 0.03372565284151136238977031 0.6744115207377328058413468
0.9906995761824761714819942 -0.001163250238279576413008565 0.6581371735792442834167559
0.982555548460104510866131 0.01589573593656511477090199 0.6662743471584886556513538
0.9906995761824761714819942 0.032954722111409817664196 0.6581371735792442834167559
0.9742871884906759705202717 0.0006409840022918594521633695 0.674928172492967992646129
0.9741628562436190907902755 -0.0003923195081780438847086911 0.6754448242482029574063063
0.4268576700683804903135865 0.002406820801707756658088799 0.7255491507333271528068508
0.42773395063547114958169 -0.0006542596675265952227765198 0.7270796909679442254770265
0.4214803082700713798836034 -0.01185302506327279986608758 0.7357401541350410134612048
0.4143503853375811729620182 -0.03092651253164720517863095 0.7428700770675205067306024