# geometry NO_DATA 588
#  x  y  z
2.298148261621957733069621 0.04584499535803832764857546 1.197696733736080876298047
2.296296523243915199685716 -0.01666666666666682602992999 1.196070759300976726891008
2.298148261621957733069621 0.01251166202470498783894115 1.197696733736080876298047
2.295044358958997054998008 0.01416233809683016021951918 1.196296523243915110867874
2.295643933052121887783414 -0.01546751848041796363608658 1.198148261621957644251779
2.295643933052121887783414 0.0437921946740784454044082 1.198148261621957644251779
2.298043106423885983957689 -0.04629652324391494988553575 1.197817342480947289118376
2.296790942138968283359191 -0.04629652324391494988553575 1.198043106423885451050637
2.296790942138967839269981 0.04629652324391479029097596 1.198043106423885451050637
2.298043106423885983957689 0.04629652324391479029097596 1.197817342480947289118376
2.317216571077357123442653 -0.02984450993439716204314038 1.197061081011754568592664
2.313016664021047219534921 -0.002389014577555202082509433 1.194122162023508959549645
2.317216571077357567531863 0.02506648077928695997340647 1.197061081011754346548059
2.310077745032801388447297 -0.04412216202350882632288176 1.196835317068816184615798
2.310077745032801832536506 0.04412216202350861815606464 1.196835317068816184615798
2.30293891898824609754115 0.04367063413763215551366415 1.196609553125878022683537
2.305877837976491484539565 0.01621513878078999909559954 1.193896398080570575572779
2.30293891898824609754115 -0.0112403565760519595639888 1.196609553125878022683537
2.198045958722543602448241 0.04520105998062108609847343 1.247155101258077047887696
2.196091917445087471350007 -0.01666666666666666296592325 1.2456464887128544383188
2.198045958722543602448241 0.01186772664728776016662692 1.247155101258077047887696
2.19415933455960310283217 0.01280150089569798144140123 1.246091917445087959848138
2.194180792951574865412567 -0.0166237498827232210718563 1.248045958722543868901766
2.194180792951574865412567 0.04222675167411918395465875 1.248045958722543868901766
2.197868381504580526097925 -0.04609191744508787241807468 1.247422952772347715111323
2.195935798619096601669298 -0.04609191744508787241807468 1.247868381504581236640661
2.195935798619096601669298 0.04609191744508787241807468 1.247868381504581236640661
2.197868381504580970187135 0.04609191744508787241807468 1.247422952772347715111323
2.237548244641035743995872 0.007640094419593757360531505 1.224605135902093966393522
2.243774122320517871997936 0.02852167239396333209278112 1.230532638765742259323588
2.243774122320517871997936 -0.01324148355477582084116506 1.230532638765742259323588
2.233912297171152694374996 -0.0218423050956669112521169 1.229697385863450342924352
2.242725994065135175503656 -0.03754824464103623249400243 1.233997796633895971396555
2.223471508183967770833078 -0.03429406045463067459477813 1.239692746118401522892327
2.223471508183968214922288 0.03429406045463069541145984 1.239692746118401744936932
2.233912297171152694374996 0.02184230509566694594658642 1.229697385863450342924352
2.242725994065135175503656 0.03754824464103624637179024 1.23399779663389574935195
2.228734547747053706956422 -0.000960727121297330123074476 1.22030472513164833792132
2.226146728532553797919036 0.004214911307702938654540237 1.221931817224851224423787
2.215705939545368430287908 0.01577580920219991827968542 1.231927177479802404391762
2.207852969772684303961796 0.03340320299016392296964639 1.240295445641551141946479
2.207852969772684303961796 -0.001851584585764114599532038 1.240295445641551141946479
2.28351927932369269669266 -0.03792089659973862936226396 1.218104776941943967472071
2.268104776941943789836387 -0.03792089659973862936226396 1.230258157485074166359595
2.268104776941943789836387 0.03792089659973862936226396 1.230258157485074166359595
2.28351927932369269669266 0.03792089659973862936226396 1.218104776941943967472071
2.286868556463628188168968 -0.007091891836241646582261744 1.20603955170013077413671
2.277493605782010099858326 0.01416233809683031287518507 1.212079103400261370637736
2.286868556463628188168968 0.03541656802990228447569621 1.20603955170013077413671
2.262079103400261193002052 0.007640094419593745217467173 1.224232483943391791569866
2.256039551700130374456421 0.02889432435266570814436093 1.230346312786391393956364
2.256039551700130374456421 -0.01361413551347821250525616 1.23034631278639117191176
2.346289588222611133261353 -0.009156297951868699186439571 1.207465596134786878224077
2.348144794111305166950388 0.02046662360407672937023804 1.209365574603491477745365
2.348144794111305166950388 -0.03877921950781423876541965 1.20936557460349169978997
2.338616953489194294490972 -0.04628958822261209499204782 1.205610390246092844535042
2.338616953489195182669391 0.04628958822261220601435028 1.205610390246092844535042
2.336761747600500260801937 -0.01666666666666655541306774 1.203710411777387800924544
2.329089112867083866120765 -0.006099426354942792845303945 1.201855205888693989280114
2.329089112867084310209975 0.0272339069783905408927982 1.201855205888693989280114
2.386076139094791770389747 0.01233176457485892288379326 1.228423076525970270012067
2.393038069547396062830558 0.03174123700298458333746154 1.235960361694129261422859
2.393038069547396062830558 -0.007077707853266731498342867 1.235960361694129261422859
2.366566801467715031037642 -0.03209776887272358658620419 1.213823995706256653193122
2.381244283023347563243988 -0.03607613909479232688903849 1.226334026215984973617878
2.35686206525365227193447 -0.04602162977793125553382936 1.210617249611051882141055
2.35686206525365182784526 0.04602162977793137349502572 1.210617249611051438051845
2.366566801467714586948432 0.03209776887272369066961275 1.213823995706256209103913
2.381244283023347563243988 0.03607613909479231995014459 1.226334026215984973617878
2.371398657539159238183402 -0.01268829644459792960198286 1.215913046016241949587311
2.363683106436130998417866 0.002742805761459102438515334 1.210940300674672398528742
2.353978370222068239314694 -0.009156297951868692247545667 1.207733554579467405432069
2.351989185111033719977058 0.02019866515939589685091349 1.209499553825831963393966
2.351989185111033719977058 -0.03851126106313339236830728 1.209499553825831963393966
2.415837597532118241616672 -0.027198985134148329773085 1.243036582666267264585258
2.418363924766658179521528 -0.007792486468280764369542801 1.236073165332534529170516
2.415837597532118241616672 0.01161401219758683225902196 1.243036582666267264585258
2.411400507432925444106786 -0.03607316533253426826810539 1.240869131620363496892878
2.411400507432925444106786 0.03607316533253422663474197 1.240869131620363496892878
2.40696341733373220250769 0.03173826324072649002205893 1.238701680574459729200498
2.413926834667464937922432 0.01233176457485889512821764 1.233905714286630539433531
2.40696341733373220250769 -0.007074734091008668540601079 1.238701680574459285111288
2.095850078088736800907554 0.04032386307771278211031785 1.294473784988975584298032
2.091700156177473957086477 -0.01666666666666682949937695 1.291012009627593659644162
2.095850078088736800907554 0.006990529744379447504853964 1.294473784988975584298032
2.088331728102382101042167 0.009929810516482808629978862 1.291700156177474356766766
2.089113221938553088818935 -0.01510367899432482098609487 1.295850078088737422632448
2.089113221938553088818935 0.03496330002729060304478281 1.295850078088737200587843
2.095573781527998225016063 -0.04170015617747445391128025 1.294885634978117927573749
2.092205353452906368971753 -0.04170015617747445391128025 1.295573781527998846740957
2.092205353452906813060963 0.04170015617747430125561436 1.295573781527998846740957
2.095573781527998225016063 0.04170015617747430125561436 1.294885634978117927573749
2.137017514763104308883612 0.008607149272350955726551547 1.275619393206403939799998
2.14350875738155188798828 0.02895799736878890487390414 1.281765058557465142285992
2.14350875738155188798828 -0.01174369882408700035969495 1.281765058557465142285992
2.133538218849909462448977 -0.02136439586981331989479216 1.279854037420138368474909
2.142378326069930505326511 -0.0370175147631046225216167 1.284664385943001585488332
2.123362794801690434098873 -0.03434688110670870708762692 1.28934131491847669970241
2.123362794801690434098873 0.03434688110670870708762692 1.28934131491847669970241
2.133538218849909462448977 0.02136439586981332683368606 1.279854037420138368474909
2.142378326069930949415721 0.0370175147631046155827228 1.284664385943001585488332
2.128177407543083266006079 -0.001013547773375368362194782 1.270809044683540722786574
2.125828542941509802233213 0.003684181429771290084557167 1.272144361511738708259145
2.115653118893290773883109 0.01529037356690515769841454 1.281631639010077039486646
2.107826559446645209305871 0.03297058800694719488122431 1.289783599680217385241576
2.107826559446645209305871 -0.002389840873136884688565651 1.289783599680217385241576
2.183526246504475132326206 -0.03746480829028071141140188 1.268792162723293204251718
2.168792162723292893389271 -0.03746480829028071141140188 1.28142907069280198584238
2.168792162723292893389271 0.03746480829028070447250798 1.28142907069280198584238
2.183526246504475132326206 0.03746480829028071141140188 1.268792162723293204251718
2.185735763417223864735206 -0.007996640727916067004077405 1.256267595854859475679177
2.177269275490901101477448 0.0128015008956979762372308 1.262535191709719173402959
2.185735763417223864735206 0.03359964251931201600909205 1.256267595854859475679177
2.162535191709718862540512 0.008607149272350952257104595 1.275172099679227954993621
2.156267595854859386861335 0.02940529089596499723313627 1.281541411793877260905106
2.156267595854859386861335 -0.01219099235126308924948013 1.281541411793877260905106
2.438997111734270362148891 0.006012539574674434679490975 1.272342491386400098463128
2.444498555867135269892287 0.02834298464227816630178758 1.278180650374205917785275
2.444498555867135269892287 -0.01631790549292931602476386 1.278180650374205917785275
2.432268979299661459947401 -0.03899711173427039545558159 1.266841047253535412764336
2.432268979299661459947401 0.03899711173427042321115721 1.266841047253535190719731
2.426767535166796552204005 -0.01666666666666664214924154 1.261002888265729815486793
2.420039402732187205913306 -0.01879537473401031097419711 1.255501444132864685698792
2.420039402732187205913306 0.01453795859932302536599025 1.255501444132864685698792
2.481474078677786909707947 0.01160066193772883204327062 1.280126583259941330794618
2.486937535792189457595214 -0.0006737477089227953980926644 1.286263788083267245454522
2.491233723965898594343571 0.009266124056340339226744973 1.294933995271061899501319
2.490066455025204295026242 -0.01900120454805515751717238 1.297466997635530860932818
2.490066455025204295026242 0.03753345266073583597066232 1.297466997635531082977423
2.479179854154535789234615 -0.01618911098423173738902747 1.278506106445612688915503
2.470509646966740913143212 -0.03218202994197560951050718 1.281849250087411462573073
2.477100059663700726275692 -0.04493399527106216317928755 1.292139934089534758498985
2.470509646966740913143212 0.0321820299419756372660828 1.281849250087411462573073
2.477100059663701170364902 0.04493399527106217705707536 1.292139934089534758498985
2.479179854154535789234615 0.01618911098423175820570918 1.278506106445612910960108
2.473716397040132353168929 -0.003914701337580112766589835 1.272368901622286774255599
2.471422172516881232695596 0.0006737477089228151305722037 1.270748424807958354421089
2.462751965329086356604193 0.006012539574674428607958809 1.274091568449756906034054
2.456375982664543045075334 0.02659390757892120954464232 1.279055188905884321570738
2.456375982664543045075334 -0.01456882842957236620651251 1.279055188905884321570738
2.038182826848596196356311 0.006574457592773110675699044 1.323437735281123073249887
2.044091413424297787315709 0.02809061777470302570525185 1.329149710835141329212661
2.044091413424297787315709 -0.01494170258915680261913028 1.329149710835141551257266
2.007743596139326847094253 -0.04065006900821779844967807 1.348393665147544329130369
2.006281300348345730810706 -0.01052940537979498575316128 1.346787330295089235576711
2.007743596139326403005043 0.01959125824862783735169636 1.348393665147544329130369
2.034304747933141754856479 -0.02245095448315060499000495 1.329455254417878595774027
2.043105478417085230091743 -0.03818282684859657105658215 1.333209880364875976610506
2.025153002694632053959367 -0.03105545792964351653475674 1.338606999656388518715744
2.020355697155345353621669 -0.04678733029508948260133394 1.347407730140332215995613
2.025153002694632498048577 0.0310554579296435269430976 1.338606999656388740760349
2.020355697155345353621669 0.04678733029508948260133394 1.347407730140332215995613
2.034304747933142198945689 0.02245095448315061886779276 1.329455254417879039863237
2.043105478417086118270163 0.03818282684859658493436996 1.333209880364875754565901
2.029382096364652277031837 -0.0009347943012206957067236623 1.319683109334126136502618
2.02648995245641039275597 0.004849493515263253798353027 1.321640458941147455718124
2.017338207217900691858858 0.01345399696175616013893439 1.330792204179657156615235
2.011078605887632875237614 -0.0009347943012206991761706143 1.337986599811145538296842
2.08061295896593456689061 -0.03845315225279350573872605 1.317314720374360037524752
2.067314720374359815480148 -0.03845315225279349879983215 1.328935282504080106491529
2.067314720374359815480148 0.03845315225279352655540777 1.328935282504080106491529
2.0806129589659341228014 0.03845315225279352655540777 1.317314720374360037524752
2.082369901056752237167302 -0.0118566750696438710788172 1.305773423873603400480192
2.074845086338780397738901 0.00992981051648299077594384 1.311546847747206534506859
2.082369901056752237167302 0.03171629610260983528347012 1.305773423873603400480192
2.061546847747205646328439 0.006574457592773128022933804 1.323167409876926159384425
2.055773423873602734346377 0.02836094317889996732628966 1.32901454813304287227993
2.055773423873602734346377 -0.01521202799335373036238028 1.329014548133043094324535
2.496620746263001677789362 -0.009744990914904399018081627 1.306840091612878396176711
2.498310373131500838894681 0.02020908868143158829133732 1.308611302620260818940778
2.498310373131500838894681 -0.03969907051124038632750057 1.308611302620260818940778
2.494610101826337356101249 -0.04662074626300265201006567 1.305150464744379679160602
2.494610101826337800190458 0.04662074626300265201006567 1.305150464744379679160602
2.492920474957839083174349 -0.01666666666666666296592325 1.303379253736997256396535
2.490909830521174317397026 0.005886870319342991930700038 1.301689626868498539380425
2.490909830521174761486236 0.03922020365267632480144044 1.301689626868498539380425
2.535349447413906887049961 0.01399169643659133217827861 1.329979734137721747444516
2.542674723706953354707139 0.03267447718383205412795434 1.337983639396304491597789
2.542674723706953354707139 -0.004691084310649390638758849 1.337983639396304491597789
2.516479638371271310148813 -0.03158299689191385040132332 1.314463524290697460372712
2.531263079776941093967935 -0.03534944741390739358921635 1.327909480581329848547512
2.507138247997650726262009 -0.04623354947800645958766452 1.310599085873532354540316
2.507138247997650726262009 0.04623354947800645264877062 1.310599085873532354540316
2.516479638371270866059604 0.03158299689191385040132332 1.314463524290697904461922
2.531263079776941093967935 0.03534944741390739358921635 1.327909480581329848547512
2.52056600600823710323084 -0.01290021614467312151275369 1.316533777847089581314322
2.513107840895613342979686 0.002016114080574060718475948 1.311091726815039937292795
2.503766450521992759092882 -0.009744990914904399018081627 1.307227288397874831460399
2.501883225260995935457231 0.01982189189643538893004227 1.308804901012759147604925
2.501883225260995935457231 -0.03931187372624418696620552 1.308804901012759147604925
2.559950258458953520346313 -0.03616505809896650852630628 1.346115316557920493778511
2.560802154392595841869706 -0.01060109164979246287874304 1.342230633115840676694575
2.559950258458953076257103 0.01496287479938141276591956 1.346115316557920493778511
2.556917470950516246830375 -0.0422306331158405351411389 1.344777831442882654044979
2.556917470950516246830375 0.04223063311584070167459259 1.344777831442882654044979
2.553884683442079417403647 0.03955566288576537609111838 1.343440346327845036356052
2.557769366884159012442979 0.01399169643659149871173231 1.340893148000803059005648
2.553884683442079417403647 -0.01157227001258254173166051 1.343440346327845036356052
2.034254255319255300094028 -0.009239102434304579183899087 1.393493357753560646372648
2.026887091029287102372791 0.01108094640614937578804167 1.386986715507120715429323
2.034254255319255300094028 0.03140099524660331514747114 1.393493357753560646372648
2.008547380050474728818699 -0.04695778998585255215036938 1.355478749407038385754731
2.011985391653477783791004 -0.03394450549297315516961149 1.365638773827265284310783
2.024338093182812770010059 -0.03698671550712059885590577 1.380784335486858527275444
2.011985391653477783791004 0.0339445054929731829251871 1.365638773827265506355388
2.024338093182812770010059 0.03698671550712061967258748 1.380784335486858527275444
2.008547380050474728818699 0.04695778998585256602815718 1.355478749407038607799336
2.007658366293945562119916 -0.04082052869898087493760741 1.351521105007073453307953
2.006110840657583160862032 -0.01052940537979498054899086 1.353042210014147261887274
2.007658366293945562119916 0.01976171793939091037017874 1.351521105007073453307953
2.009548852260587104012757 0.00365338217378729287337924 1.363202234434374382487931
2.014534389499952560242946 -0.01362445665251920540184116 1.371841153847527694509267
2.588001387017358378983545 0.008048929020202787165683134 1.374356410826076402287299
2.594000693508679233900693 0.02938364937089444142714889 1.38071490217819015100531
2.594000693508679233900693 -0.01328579133048886536105915 1.380714902178190373049915
2.580366814350449455872649 -0.03800138701735832069683596 1.368357104334755769414755
2.580366814350449011783439 0.03800138701735831375794206 1.36835710433475554737015
2.574367507859128600955501 -0.01666666666666666990481716 1.361998612982641798652139
2.566732935192219677844605 -0.02259970463243431496036528 1.355999306491321165779596
2.566732935192219233755395 0.01073362870089901791037512 1.355999306491321165779596
2.629594271932087057308536 0.008173548198758293775734174 1.378579276266671982398293
2.633427297115112253322877 -0.0005074978327071395529240805 1.382919799282404937912361
2.635309320276387978765342 0.004271544155258816602427352 1.3915068815320916773004
2.633358318254638064104256 -0.02056867071016616269063526 1.395753440766045905263582
2.633358318254638064104256 0.02911175902068362589258932 1.395753440766045905263582
2.627959486417074330688592 -0.01144311922878399508107794 1.377451988584366349144261
2.619372404167386925166738 -0.02760228806274335477954907 1.381730202010821528801898
2.622889212843674933139937 -0.04150688153209147746025565 1.391444571942814123488574
2.619372404167386481077529 0.02760228806274350743521495 1.381730202010821528801898
2.622889212843674933139937 0.04150688153209165093260324 1.39144457194281345735476
2.627959486417074330688592 0.01144311922878412518533864 1.377451988584366349144261
2.624126461234048690585041 -0.00276207319731856196926012 1.373111465568633393630193
2.622491675719035519875888 0.0005074978327072699824454305 1.371984177886327760376162
2.613904593469348558443244 0.008048929020202766349001422 1.376262391312782940033799
2.606952296734674323630543 0.0274776688841879730695883 1.381667892421543530900863
2.606952296734674323630543 -0.01137981084378242302435069 1.381667892421543530900863
2.035858617341205878403798 -0.01305387520020146949195627 1.415947778392026679128435
2.042929308670603294473267 0.006138075474337725996598625 1.410683482795862531133935
2.042929308670603294473267 -0.03224582587474064676591468 1.410683482795862531133935
2.040136448540343927504637 -0.03585861734120586452601032 1.408877087062629929192781
2.040136448540343927504637 0.0358586173412058437093286 1.408877087062629707148176
2.033065757210946955524378 -0.01666666666666669072149887 1.414141382658794299231886
2.037343588410085448714426 -0.003060436252644807997996823 1.407070691329397327251627
2.037343588410085448714426 0.03027289708068853224531836 1.407070691329397327251627
2.088520537272638311065975 -0.004337279901836568404838168 1.442857817174475032473424
2.079973542874606451391628 0.01471168778044714200992082 1.435715634348950553444979
2.088520537272638311065975 0.03376065546273082640382768 1.442857817174475254518029
2.072831360049081528273973 -0.03571563434895035082927706 1.427997546241041249004411
2.072831360049081528273973 0.03571563434895037858485267 1.427997546241041249004411
2.057142182825524745481971 0.00599509248208226173948443 1.413137275307607243490793
2.064284365651049668599626 -0.0130538752002014243891459 1.420855363415516325886756
2.057142182825524745481971 -0.03210284288248513306918142 1.413137275307607243490793
2.644344700418721050283466 -0.005051509657202978703649521 1.411462878086010563905006
2.647172350209360480732812 0.02262652409485130244881645 1.414442806800102703235211
2.647172350209360480732812 -0.03272954340925743332846309 1.414442806800102703235211
2.640974788953656560153149 -0.04434470041872094064894227 1.408635228295370911411055
2.640974788953656560153149 0.04434470041872112799907768 1.408635228295370911411055
2.638147139163017129703803 -0.0166666666666664860241287 1.40565529958127877208085
2.634777227697952639573487 -0.001383755426020234465325776 1.402827649790639563676109
2.634777227697952639573487 0.0319495779073130994896168 1.402827649790639341631504
2.684922857155565445452794 0.01500957488315991274208105 1.430915263619347843615515
2.692461428577782811544239 0.03326576537205828965060306 1.439214812972043677774536
2.692461428577782811544239 -0.003246615605738492789378302 1.439214812972043677774536
2.671585727765960704971349 -0.02853725951917629455323322 1.419996203943728829699467
2.68505959561443363625699 -0.03492285715556504854806263 1.432641525900447465602383
2.662457632521511463608022 -0.04361440236361124878072815 1.418265211026243033387573
2.662457632521511463608022 0.04361440236361144306975746 1.418265211026242811342968
2.671585727765960704971349 0.02853725951917650618949729 1.419996203943728829699467
2.68505959561443319216778 0.03492285715556506936474435 1.432641525900447465602383
2.671448989307092958256362 -0.01028106903027788815441212 1.418269941662629207712598
2.665513692880837837151375 0.001589523822231921458894566 1.413924169058605961879493
2.656385597636389039877258 -0.005051509657202972632117355 1.4121931761411201655676
2.653192798818194475529708 0.02189622603974161058060233 1.41480795582765761508881
2.653192798818194475529708 -0.03199924535414773452135506 1.41480795582765761508881
2.706234143941574021852148 -0.04157867505180050382573853 1.44781281899337388452409
2.706397843480726539411307 -0.01261970373171937206957516 1.4456256379867478134571
2.706234143941574021852148 0.01633926758836184295331506 1.447812818993373662479485
2.704210662474100246299713 -0.04562563798674788839715433 1.446984273101620477319784
2.704210662474100246299713 0.04562563798674779819153358 1.446984273101620255275179
2.702187181006626914836488 0.04396854620324101153849838 1.446155727209867070115479
2.704374362013252763858873 0.01500957488315979998505512 1.444797092094994406252795
2.702187181006626026658068 -0.01394939643692133177110826 1.446155727209867070115479
2.096614681902601251550777 -0.01558421384886433599947786 1.453926544506299656234205
2.09830734095130067018431 0.01436380138707028970845858 1.452775111866501100976734
2.09830734095130067018431 -0.04553222908479913344503842 1.452775111866501323021339
2.09732985150819084552154 -0.04661468190260129734747707 1.452233885457600237600673
2.09732985150819084552154 0.04661468190260146388093077 1.452233885457600237600673
2.095637192459491870977217 -0.01666666666666649990191651 1.453385318097398570813539
2.09635236206508102085877 0.01132636968304857535971841 1.451692659048698930135401
2.09635236206508102085877 0.04465970301638191863879968 1.451692659048698930135401
2.147153930571044089248289 0.03348438221817903737154154 1.486330451647134731629762
2.14430786114208871140363 -0.01666666666666666296592325 1.488896121680133965980986
2.147153930571044089248289 0.0001510488848457021697664626 1.486330451647134509585158
2.135331306909534099247594 -0.001286441798442400450547263 1.486617748707976582878132
2.129200822105935309025426 0.0109745278087553885942862 1.48177370570282018746866
2.137757166781743212169431 -0.04430786114208871279140922 1.482345427319788244702181
2.121510709671823313726691 -0.02892763627386445504652279 1.47333837787916666073329
2.121090500115076160625449 -0.04430786114208871279140922 1.471631726523977334863957
2.128780612549187711834975 0.02892763627386446545486365 1.480067054347630417510118
2.114960015311476926314072 0.03461977513177574850011808 1.466787683518820495365276
2.137757166781742768080221 0.04430786114208873360809093 1.482345427319788022657576
2.107690112434112084116578 0.002368894616244566521390258 1.460059007050356516543843
2.115380224868224523504523 -0.0155842138488645060023785 1.468494334874010265323818
2.107690112434112528205787 -0.03353732231397357765878553 1.460059007050356516543843
2.16385087305412326941223 -0.03348555994502494526088299 1.497336432999148314593185
2.160920787028338896362811 -0.00547936061339504391909383 1.49467286599829662918637
2.16385087305412282532302 0.02252683871823485395324838 1.497336432999148314593185
2.158257220027487210955996 -0.04467286599829656257298893 1.491924693537193480352698
2.158257220027487210955996 0.04467286599829656951188284 1.491924693537193480352698
2.152663567000851152499763 0.03384938707438688021422735 1.486512954075238646112211
2.155327134001702837906578 0.005843187742756980607161665 1.489261126536341794945884
2.152663567000851152499763 -0.02216301158887291206101011 1.486512954075238646112211
2.737409398437633534229008 0.009075153135338605639437226 1.475461511463368680097119
2.743704699218817211203714 0.02981788490630564794625634 1.48203712058318815003588
2.743704699218817211203714 -0.01166757863562847136185141 1.48203712058318815003588
2.729061514019623935212167 -0.0374093984376337104769128 1.469166210682185447211623
2.729061514019623935212167 0.03740939843763374517138232 1.469166210682185447211623
2.72276621323844114641588 -0.01666666666666663521034764 1.462590601562365977272862
2.714418328820431103309829 -0.02521030529408554293757661 1.45629530078118296643197
2.714418328820431103309829 0.008123028039247793402610753 1.45629530078118296643197
2.77851280434330139001986 0.006022631194261326287309188 1.477509826850960550359559
2.781273375567347105885574 -0.0005014887461702078903097446 1.480771886821176330784056
2.780690974913039070770537 -0.0006633125624450318408992233 1.489355964527594666790833
2.777348003034685763878997 -0.02335261042337301654048254 1.494677982263797222373114
2.777348003034685763878997 0.02202598529848303482436833 1.494677982263797222373114
2.776986691689569575203222 -0.009074856501725011431735979 1.476485202943398800101704
2.76840261398315101715184 -0.0252400344222215508582785 1.481273523884153231477967
2.769346325982575240942651 -0.03935596452759473201643559 1.4908822254981333177426
2.76840261398315101715184 0.02524003442222149534712727 1.481273523884153231477967
2.769346325982574796853442 0.03935596452759464874970874 1.4908822254981333177426
2.776986691689569575203222 0.009074856501724962859478651 1.476485202943399244190914
2.774226120465524303426719 -0.00255073656129347747095748 1.473223142973183019677208
2.772700007811792488610081 0.0005014887461701593180524172 1.472198519065621491463958
2.764115930105373486469489 0.009075153135338598700543322 1.47698684000637592284022
2.757057965052686743234744 0.02829255636329875214785012 1.482799784854691882429734
2.757057965052686743234744 -0.01014225009262157903289214 1.482799784854691882429734
2.193783098592525515613261 0.014384949977156566772174 1.520601851384630887054072
2.187566197185050853590838 -0.0166666666666666664353702 1.525975573581103583720164
2.193783098592525515613261 -0.01894838335617676783328989 1.520601851384630887054072
2.17889913238535015693742 -0.0006674629327353132079991838 1.529566595318085031607325
2.176448968993123678217216 0.00423286385171754882261741 1.527783894858594004872998
2.169325809087848888623284 -0.03100141558100872468672904 1.513732156061213141029498
2.182710084952494522525512 -0.03756619718505087995863434 1.515525808321911416243211
2.171731757928179185057616 -0.01500221184707737145935802 1.52239922086091405972752
2.171731757928178740968406 0.01500221184707737492880497 1.52239922086091405972752
2.169325809087848888623284 0.03100141558100872468672904 1.513732156061213141029498
2.182710084952494522525512 0.03756619718505087995863434 1.515525808321911416243211
2.164469696855292557557959 -0.03224791234268622325265241 1.503282390802020973552544
2.16215843463067791674348 -0.005479360613395043051732092 1.506564781604042169149693
2.164469696855292557557959 0.0212891911158961319450178 1.503282390802020973552544
2.164564383471008213177811 0.000667462932735317653228091 1.515231846403743087847715
2.169281594535952706337412 -0.01010188506262450942874143 1.520616520401423032993193
2.229879757527504668956908 -0.01444705396702275837506058 1.544326811494527884605077
2.223449661521960329935155 0.00753990235536612651845445 1.538653622989055502756628
2.229879757527504668956908 0.02952685867775502528975728 1.544326811494527662560472
2.217776473016488392175916 -0.03865362298905555826777913 1.532736187890580525916562
2.217776473016488392175916 0.03865362298905555826777913 1.532736187890580525916562
2.205673188505472115394923 0.01547237578116123987714836 1.521145564286633389272652
2.211346377010944053154162 -0.006514580541227655424707521 1.527062999385108366112718