# geometry NO_DATA 652
#  x  y  z
2.247487437992529368813166 0.03355844673335373756772881 1.136071008740824783700418
2.244974875985058293537122 -0.0166666666666666664353702 1.139266661359205956571827
2.247487437992529368813166 0.0002251134000203977580945036 1.136071008740824783700418
2.235297923253910745700068 -0.002687238795629084964211586 1.14497487598505820471928
2.228133532530233384960638 -0.03099544811402037136627285 1.147487437992529279995324
2.228133532530233829049848 0.02562097052276219449895578 1.147487437992529279995324
2.243288029583820453183307 -0.04497487598505794936798452 1.137579814957968338262617
2.233611076852672905346253 -0.04497487598505795630687842 1.143288029583820364365465
2.233611076852672905346253 0.04497487598505795630687842 1.143288029583820808454675
2.243288029583820453183307 0.04497487598505795630687842 1.137579814957968560307222
2.291678768453337511346035 -0.00731361491342093564260729 1.112997757423285660749457
2.295839384226668666855176 0.01769848687324953109833992 1.113513667526576877975231
2.295839384226668666855176 -0.03232571670009141279189535 1.113513667526577100019836
2.276173675524564732342014 -0.03008268994614374594598338 1.117828240404560524723365
2.287042302937634552506552 -0.04167876845333712970687046 1.11670672702758677630186
2.263667624631229280396383 -0.03840392149280660860632963 1.124626076672043728521544
2.263667624631229280396383 0.03840392149280662248411744 1.124626076672043506476939
2.276173675524564732342014 0.03008268994614376329321814 1.11782824040456030267876
2.287042302937634552506552 0.04167876845333713664576436 1.116706727027586554257255
2.280810141040267247092288 -0.00507058815947326966405706 1.114119270800259409170962
2.274102129400529026526101 0.008345435120003819387535238 1.115756694280524596862847
2.261596078507193574580469 0.005250237414962462441370139 1.122554530548007800661026
2.255798039253596787290235 0.02698749224110241762275564 1.12771494333522581676732
2.255798039253596787290235 -0.01648701741117749794418579 1.12771494333522581676732
2.344233027912862254993343 -0.007221326544572331807003707 1.11048964214818446372135
2.347116513956430949860987 0.0203450347016232782615397 1.112328826165662976066528
2.347116513956430949860987 -0.03478768779076794881444101 1.112328826165662976066528
2.321485360869770531166978 -0.03839738878626047791087217 1.110585666290241579901021
2.335234207973136300040551 -0.04423302791286227997336056 1.112390516787987726488041
2.307702180246672618579851 -0.04416436087339820071306917 1.112378706123295479812896
2.307702180246672618579851 0.04416436087339821459085698 1.112378706123295479812896
2.321485360869770531166978 0.03839738878626049178865998 1.110585666290241579901021
2.335234207973136300040551 0.04423302791286227997336056 1.112390516787987726488041
2.33048418080949604203056 -0.01083102754006486437288181 1.108684791650438317134331
2.319618819749699412113841 0.01089969457952895751096101 1.108719125170170460847885
2.305835639126601499526714 -0.007313614913420936509969028 1.110512165003224582804364
2.302917819563300660945515 0.02018407929331059863509168 1.112270871316546561047289
2.302917819563300660945515 -0.03481130912015248379809407 1.112270871316546561047289
2.387995402638774411485656 0.005084211515475054073143202 1.122880036452296614868374
2.393997701319387161333907 0.02641294748758276147992952 1.127753176862754447284942
2.393997701319387161333907 -0.01624452445663266200726049 1.127753176862754447284942
2.37293168542006860377569 -0.02894220364384132021529084 1.118269616114627718062025
2.385071752589269067357236 -0.03799540263877437817896521 1.124618455708232156453619
2.362267317434015190258378 -0.04094680100506695175077709 1.116989987495062175426597
2.362267317434015190258378 0.04094680100506695175077709 1.116989987495062175426597
2.372931685420069047864899 0.02894220364384133409307864 1.118269616114627718062025
2.385071752589269067357236 0.03799540263877438511785911 1.124618455708232156453619
2.375855335469574391993319 -0.007613467671733602400163665 1.116531196858692176476779
2.369717566980987122349234 0.004662069305441053981842181 1.115055497675546014590964
2.359053198994932820653503 -0.007221326544572331807003707 1.113775869055980027866326
2.354526599497466232691067 0.01705880779382794310006233 1.113971939619560647116714
2.354526599497466232691067 -0.03150146088297260671406974 1.113971939619560647116714
2.419005766268799817453328 -0.02826335565557736365094321 1.147269121924376911181298
2.413599200247834364319033 -0.0003917784734896502811703212 1.144538243848754355269648
2.419005766268799817453328 0.02747979870859806883487408 1.147269121924376911181298
2.410868322172211364318173 -0.04453824384875437747410842 1.141477894348781330080556
2.410868322172211364318173 0.04453824384875438441300233 1.141477894348781330080556
2.402730878075622911183018 0.03295578869756275730562578 1.135686666773185526935208
2.405461756151245911183878 0.005084211515475047134249298 1.138747016273158552124301
2.402730878075622911183018 -0.02278736566661266477185066 1.135686666773185748979813
2.147991571946500144463243 0.03711760155867536992158051 1.189126029612174395566626
2.145983143893001265922749 -0.0166666666666666664353702 1.191550372725838524701203
2.147991571946500144463243 0.003784268225342037050840105 1.189126029612174395566626
2.137129180601993194699162 -0.001041259915349983635260434 1.195983143893001532376275
2.13028364536448400201607 -0.03035773714168513853772779 1.197991571946500855005979
2.13028364536448400201607 0.02827521731098517343561127 1.197991571946500855005979
2.144551523310901597341172 -0.04598314389300182242203974 1.190118752143738856119626
2.135697560019893082028375 -0.04598314389300182242203974 1.194551523310902085839302
2.135697560019893526117585 0.04598314389300182242203974 1.194551523310902085839302
2.144551523310902041430381 0.04598314389300182242203974 1.190118752143738856119626
2.18706818699907135084004 -0.008454814176782204926396957 1.167037739245871064142079
2.193534093499535764237862 0.01194670615562242257934322 1.164677758990348976908535
2.193534093499535764237862 -0.02885633450918681508490238 1.164677758990348976908535
2.176026842868101773831313 -0.02187270844716256504303153 1.172291989202364215216789
2.18509577025881451817213 -0.03706818699907129394111038 1.168800176171352234177903
2.165826082701899579774363 -0.03480452144809127040803176 1.178059978201403179554063
2.165826082701899579774363 0.03480452144809126346913786 1.178059978201403179554063
2.176026842868101773831313 0.02187270844716253728745592 1.172291989202364215216789
2.18509577025881407408292 0.03706818699907127312442867 1.168800176171352234177903
2.177999259608359494677643 -0.001471188114757955318206983 1.170529552276883045180966
2.175396238718111163734648 0.003734853665737931580070885 1.171661385052372938986309
2.165195478551908525588487 0.007801124332340203526570122 1.177429374051412125368188
2.157597739275954218385323 0.02593897911376480749923168 1.182065530274961195900119
2.157597739275953774296113 -0.01033673044908439003775058 1.182065530274960973855514
2.212186683683670551658906 -0.04613560197900995474284969 1.155196969748151669676872
2.205196969748151492041188 -0.04613560197900995474284969 1.159302895993093773796545
2.205196969748151492041188 0.04613560197900993392616797 1.159302895993093773796545
2.212186683683670551658906 0.04613560197900994086506188 1.155196969748151669676872
2.215911626881532647814765 -0.03215617410797237674113802 1.151932199010495150304223
2.210854111956509271408322 -0.002687238795629105780893298 1.153864398020990167381683
2.215911626881532647814765 0.02678169651671418252658619 1.151932199010495150304223
2.203864398020989767701394 -0.008454814176782204926396957 1.157970324265932271501356
2.201932199010494972668539 0.02101412113556108685052948 1.160144051500379358543569
2.201932199010494972668539 -0.03792374948912547588664168 1.160144051500379802632779
2.444614307218476945138264 -0.004278589556142046654296784 1.161579731336785048512183
2.447307153609238561386974 0.02366905099566821504830649 1.165080923501286003229893
2.447307153609238561386974 -0.03222623010795230835690006 1.165080923501286003229893
2.438777931039160407067357 -0.04461430721847692987269696 1.158886884946023876352683
2.438777931039160407067357 0.04461430721847693681159086 1.158886884946023876352683
2.436085084648399234907856 -0.01666666666666666296592325 1.155385692781522921634973
2.430248708469082252747739 -0.005777471255012720310895169 1.152692846390761527430868
2.430248708469082252747739 0.02755586207832061429456871 1.152692846390761527430868
2.484082918884928492531117 -0.01077891809209836904148716 1.194861836977026969819349
2.474748703976923813740996 0.0122780891952885932993933 1.189723673954053762003014
2.484082918884928492531117 0.03533509648267555564027376 1.194861836977026969819349
2.469610540953950383880056 -0.03972367395405362877625066 1.184389208865622489241787
2.469610540953950383880056 0.03972367395405363571514457 1.184389208865622489241787
2.455138163022973163407414 0.0187784177312449139518602 1.17391658075421823070883
2.460276326045946149179144 -0.004278589556142049256381998 1.179251045842649503470057
2.455138163022973163407414 -0.02733559684352900726045377 1.17391658075421823070883
2.047466445874920992764601 0.03407571108643621393685663 1.236609265211515040761014
2.044932891749842163164885 -0.01666666666666666990481716 1.239504301418139053936329
2.047466445874920992764601 0.0007423777531028741272223215 1.236609265211515040761014
2.035542766259039737519743 -0.002113584314938347918921835 1.244932891749842340800569
2.028686194893316141474315 -0.03037980939811395567073937 1.247466445874921170400285
2.028686194893316141474315 0.0261526407682372598328957 1.247466445874921170400285
2.04333328480054099429708 -0.04493289174984227418718774 1.237904694468837663023919
2.033943159309738124562728 -0.04493289174984228112608164 1.243333284800540505798949
2.033943159309738124562728 0.04493289174984227418718774 1.243333284800540505798949
2.04333328480054099429708 0.04493289174984228112608164 1.237904694468837440979314
2.090638323507947315960109 -0.008946870634783008272017391 1.213221574507994615643725
2.095319161753973258299766 0.01502478620649757082294862 1.212400634277910116409771
2.095319161753973702388976 -0.0329185274760635873669834 1.212400634277910116409771
2.076355959528024097693333 -0.02749010582146005354786666 1.219050969353410396323056
2.086448517351447318191049 -0.04063832350794724379561274 1.216336758526108674516308
2.064370131107383876667427 -0.03685178231351280558891759 1.225608207442347552529327
2.064370131107383876667427 0.03685178231351281252781149 1.225608207442347552529327
2.076355959528024097693333 0.02749010582146005354786666 1.219050969353410396323056
2.086448517351446874101839 0.04063832350794724379561274 1.216336758526108674516308
2.080545765684524095462393 -0.00351844898017947271817718 1.215935785335296337450472
2.075134046107127261393543 0.007304990174613911792234067 1.217829055932513782067872
2.063148217686487484456848 0.005809486003260602715592142 1.224386294021450938274143
2.056574108843243653410582 0.02599460165010674533858648 1.229050261513170871907619
2.056574108843243653410582 -0.01437562964358553643795524 1.229050261513171093952224
2.112883349101038810147202 -0.0461889495580078829339854 1.205070645725380362733858
2.105070645725380273916016 -0.0461889495580078829339854 1.208930543741322249928771
2.105070645725380273916016 0.0461889495580078829339854 1.208930543741322249928771
2.112883349101038810147202 0.0461889495580078829339854 1.205070645725380362733858
2.117530931972312568944972 -0.03056354280669120251912041 1.201905525220996029389653
2.111623753817650328556965 -0.001041259915349983635260434 1.203811050441992103188227
2.117530931972313013034181 0.02848102297599123394755694 1.201905525220996029389653
2.10381105044199223641499 -0.008946870634783008272017391 1.20767094845793399038314
2.101905525220995940571811 0.02057541225655820996132128 1.209625321252879803779479
2.101905525220995940571811 -0.03846915352612422650535606 1.209625321252879803779479
2.498491597323770463390247 -0.01328219980777079270439778 1.20320063610567729028844
2.499245798661885231695123 0.0185427308493333400929437 1.204138668197010542115777
2.499245798661885231695123 -0.04510713046487492550173926 1.204138668197010542115777
2.497051509926196288802203 -0.04849159732377081311049949 1.202446434767562521983564
2.497051509926196288802203 0.04849159732377079923271168 1.202446434767562744028169
2.496297308588081520497326 -0.01666666666666666990481716 1.201508402676229270156227
2.494857221190507345909282 0.01076968651905938975654742 1.200754201338114723895956
2.494857221190507345909282 0.04410301985239273303562868 1.200754201338114723895956
2.535940472442776982830992 0.008476341588752865988110052 1.226631031684932482406225
2.542970236221388180553049 0.02775014736486346514365842 1.232172772034030749921385
2.542970236221388180553049 -0.01079746418735773490216179 1.232172772034030749921385
2.517652504006811398085119 -0.02920086021253021774102265 1.215045364897367585754751
2.530949364558353842369343 -0.03594047244277726732564204 1.224247062909953775999838
2.508015601118755988352405 -0.04326038776975295319093817 1.209707834548204186120302
2.508015601118755988352405 0.04326038776975294625204427 1.209707834548204186120302
2.517652504006811398085119 0.02920086021253021774102265 1.215045364897367363710146
2.530949364558353842369343 0.03594047244277726732564204 1.224247062909953775999838
2.522643611891233650368349 -0.009927054436419615116027337 1.217429333672346292161137
2.516376515118301959716973 0.002607139109443935322263375 1.213769376008858369431209
2.506739612230246994073468 -0.01328219980777079270439778 1.20843184565969496979676
2.503369806115123274992129 0.01331152129531549058172324 1.206754272974019492892239
2.503369806115123274992129 -0.03987592091085707945996575 1.206754272974019492892239
2.56299926453706117257525 -0.03519329107963654890145477 1.248192555616698173892587
2.5592107988434831256086 -0.005474846512906719926683241 1.246385111233396347785174
2.56299926453706117257525 0.02424359805382310731336482 1.248192555616698173892587
2.557403354460181077456582 -0.04638511123339648933860957 1.244097393077741253719637
2.557403354460181077456582 0.04638511123339648933860957 1.244097393077741253719637
2.551807444383300982337914 0.03819478615548269062607289 1.240002230538784333546687
2.553614888766603030489932 0.008476341588752865988110052 1.242289948694439427612224
2.551807444383300982337914 -0.02124210297797696211929974 1.240002230538784333546687
1.949619664726837786616898 0.04734486922598416663854337 1.297725204499146300918255
1.949239329453675395598111 -0.01666666666666666296592325 1.298292099339829697157711
1.949619664726837786616898 0.01401153589265082856363254 1.297725204499146300918255
1.948188487978101735009773 0.01456498371551920648081513 1.299239329453675262371348
1.947517981775690021351011 -0.0180076790714895351719349 1.29961966472683743134553
1.947517981775690021351011 0.04713764650252794813356516 1.29961966472683743134553
1.948898479439149955538824 -0.04923932945367540808812024 1.297951249325304257098423
1.94784763796357607290588 -0.04923932945367540114922633 1.298898479439150044356666
1.94784763796357651699509 0.04923932945367541502701414 1.298898479439150044356666
1.948898479439149955538824 0.04923932945367541502701414 1.297951249325304257098423
1.992025654431256231902125 0.009390212835460898591066758 1.267364558404204588626385
1.984051308862512463804251 -0.0166666666666666664353702 1.271720760848986664370841
1.992025654431256231902125 -0.02394312049787243948384408 1.267364558404204588626385
1.972349394951453227520233 -0.006737161155451716794406725 1.279086556106905137042418
1.968621826609137759334089 0.0007179755291791637414680616 1.282096148920041311924933
1.984093205780367741297709 -0.03405130886251251515206562 1.2717626577668419418643
1.96365707385353016611873 -0.02412180335129756117429345 1.28611367156180311788205
1.967426539113700911798333 -0.03405130886251251515206562 1.283145975666521998448388
1.972391291869308505013692 0.02412180335129755076595259 1.279128453024760414535876
1.963698970771385887701399 0.04007049448878503838944454 1.286155568479658395375509
1.984093205780367741297709 0.03405130886251252209095952 1.2717626577668419418643
1.954964752755607548806438 0.03817603426109378306207986 1.293140787016701098721683
1.959929505511214919977192 0.01477220643897539723021772 1.289123264374939292764566
1.954964752755607548806438 -0.008631621383142964315515755 1.293140787016701098721683
2.012572336834032693531071 -0.04611060522345163115165434 1.255295795658168733766047
2.005295795658168511721442 -0.04611060522345163115165434 1.259631914311309497378488
2.005295795658168511721442 0.04611060522345163115165434 1.259631914311309497378488
2.012572336834032693531071 0.04611060522345163115165434 1.255295795658168733766047
2.01649777974000254943121 -0.03155752287172332304354683 1.251944697388274185811952
2.011165935952412553433533 -0.002113584314938347918921835 1.253889394776548371623903
2.01649777974000254943121 0.02733035424184662720570316 1.251944697388274185811952
2.003889394776548371623903 -0.007994429360384951860352132 1.258225513429689135236345
2.001944697388274185811952 0.02144950919640001979482591 1.260616934694555713036834
2.001944697388274185811952 -0.03743836791716992351553017 1.260616934694555713036834
2.592834714736458767703198 -0.0009238238181380961644428851 1.265036706687805212467879
2.59641735736822942826052 0.02524422425165420702519725 1.269325485480298887353001
2.59641735736822942826052 -0.02709187188793039935408302 1.269325485480298887353001
2.585346600778442471835206 -0.04283471473645895921666948 1.261454064056034773955162
2.585346600778442471835206 0.04283471473645897309445729 1.261454064056034773955162
2.581763958146671811277884 -0.0166666666666666664353702 1.257165285263540877025434
2.574275844188655515409891 -0.0126401317764477539445922 1.253582642631770438512717
2.574275844188655515409891 0.02069320155688558066087168 1.253582642631770438512717
2.629333316340046966530508 -0.0164788123774031493307124 1.295812128717449773773751
2.620948465093849044649232 0.008478778390829989214383389 1.291624257434899725183186
2.629333316340046966530508 0.03343636915906312429003222 1.295812128717449773773751
2.616760593811298551969458 -0.04162425743489980151101904 1.287016883475047501761424
2.616760593811298551969458 0.04162425743489981538880684 1.287016883475047501761424
2.604187871282550137408407 0.02403376695009504585009985 1.278221638232645007704491
2.608375742565100630088182 -0.0009238238181380892255489812 1.282829012192497231126254
2.604187871282550137408407 -0.02588141458637123470953867 1.278221638232645007704491
1.915394077246054926888519 -0.02968840434682638168562008 1.345082481592881240572979
1.915073316233705469358028 -0.006190107827730535403065737 1.340164963185762836417325
1.915394077246054926888519 0.0173081886913653039405947 1.345082481592881684662188
1.930523291038416910936348 -0.03722359034383624504238597 1.314907465847324097296678
1.919824984254442812314778 -0.02738855352959874284168862 1.326656614106872300595796
1.918675058845829228815205 -0.04016496318576250057486021 1.336935075945457018775642
1.919824984254442812314778 0.02738855352959878447505204 1.326656614106872300595796
1.918675058845829228815205 0.04016496318576252833043583 1.336935075945457462864852
1.930523291038416910936348 0.03722359034383627279796158 1.314907465847324319341283
1.937619855210267250100742 -0.005991939961650372993562375 1.306388204828081711639243
1.928392234847256192509235 0.01456498371551923076694379 1.312776409656163600914169
1.937619855210267250100742 0.03512190739268880590451261 1.306388204828081711639243
1.917693928063281649798455 0.006831629852429206735398015 1.324525557915711582168683
1.916223241642319052857601 -0.003890257010502896992815147 1.32988650134717767414827
2.64729516436771605825129 -0.01060545359916284860468672 1.30573544216603587564407
2.648647582183857984716724 0.02002304410188668337688966 1.307413630883645705438312
2.648647582183857984716724 -0.04123395130021238058626309 1.307413630883645705438312
2.644553638045939791823002 -0.04729516436771619841694658 1.304383024349893727134031
2.644553638045939791823002 0.04729516436771619841694658 1.304383024349893727134031
2.643201220229798309446778 -0.01666666666666666990481716 1.302704835632283897339789
2.640459693908021598929281 0.005773942758546178784240244 1.30135241781614174882975
2.640459693908021598929281 0.03910727609187951425706586 1.30135241781614174882975
2.683865397431048904763884 0.01078939488056184121955727 1.329862633342565603200569
2.691932698715524541199784 0.02798812564494385785041075 1.335523362831704030639912
2.691932698715524541199784 -0.006409335883820177146019681 1.335523362831704030639912
2.674302074879130408646688 -0.01936823226992301014148801 1.323770010781414985245874
2.683720158965234858783333 -0.03386539743104868133150021 1.330249458974466225669175
2.665702709496939437627816 -0.03550283483887432811609841 1.31873331603069110506965
2.665702709496939437627816 0.03550283483887432811609841 1.31873331603069110506965
2.674302074879130408646688 0.01936823226992301361093496 1.323770010781414763201269
2.683720158965233970604913 0.03386539743104868827039411 1.330249458974466225669175
2.674447313344945342805659 -0.002169501505540990474868446 1.323383185149514140732663
2.673096530543316973194123 0.0005320640977153547491323993 1.3225644664456011057041
2.664497165161125558086042 -0.01060545359916284513523976 1.31752777169487744757248
2.657248582580562956678705 0.008230714573044816545488445 1.313309795648066602424819
2.657248582580562956678705 -0.02944162177137051028541492 1.313309795648066602424819
2.709183632849653466934114 -0.03952967615921579996873803 1.348713309008868765914713
2.706521852911523584594988 -0.008769724808144295849499095 1.347426618017738109145398
2.709183632849653911023324 0.02199022654292721173918679 1.348713309008868765914713
2.705235161920392261691859 -0.04742661801773817575877956 1.345774673115816444379789
2.705235161920392705781069 0.04742661801773817575877956 1.345774673115816444379789
2.701286690991131500538813 0.0415493462316333453387962 1.342836037222764122844865
2.702573381982262379352733 0.0107893948805618394848338 1.344487982124685565565869
2.701286690991131056449603 -0.01997055647050966983857556 1.342836037222764122844865
1.920936075536449294531849 -0.02482749500666006983728984 1.3957635705431095107798
1.916822681953560092438238 3.297941289267617570460725e-05 1.391527141086219332422047
1.920936075536449294531849 0.02489345383244544532286291 1.3957635705431095107798
1.91533175233963359751499 -0.04319195311183365859619698 1.36009347292016546937532
1.914329902377055692141994 -0.03471909419805309371387381 1.372523710129941898472339
1.919275701972751990709298 -0.04152714108621943789323439 1.385786353352525424043051
1.914329902377055692141994 0.03471909419805305208051038 1.372523710129941676427734
1.919275701972751990709298 0.04152714108621941707655267 1.385786353352524979953841
1.91533175233963359751499 0.04319195311183364471840918 1.36009347292016546937532
1.91388058228301938257232 -0.03271539427289754664585075 1.353404023444083392746506
1.912046326307634602770236 -0.00619010782773057269962047 1.356808046888166474630566
1.91388058228301938257232 0.020335178617436423798015 1.353404023444083392746506
1.91104447634505625330803 0.008193807752886059919683603 1.36923828409794268168298
1.911876882357863127737119 -0.00985861977850035001158524 1.378264497863635806851335
2.741544130064481610276061 0.001190762867551979631297598 1.367384584702627359220628
2.745772065032240583093426 0.02606822626536743972569532 1.372085364501977711171321
2.745772065032240583093426 -0.02368670053026348046310012 1.372085364501977711171321
2.733053869294835180880909 -0.04154413006448212652976792 1.363156649734868164358659
2.733053869294835624970119 0.04154413006448212652976792 1.363156649734868164358659
2.728825934327076652152755 -0.0166666666666666664353702 1.358455869935517812407966
2.720335673557429778668393 -0.01722559474366217036056526 1.354227934967758617545996
2.720335673557430666846813 0.0161077385896711590407282 1.354227934967758617545996
2.775697092277496835777129 -0.02072784901561549111836946 1.396424941293111787743442
2.768211134199079825890522 0.005455366903941639977748679 1.39284988258622388634933
2.775697092277495947598709 0.03163858282349877454331377 1.396424941293112009788047
2.76463607549219192449641 -0.04284988258622379753148834 1.388686989393554727101332
2.76463607549219192449641 0.04284988258622380447038225 1.388686989393554727101332
2.753575058706887901394111 0.0273739787871091211357566 1.380949037493997444414617
2.757150117413775802788223 0.001190762867551980715499771 1.385111930686666603662616
2.753575058706887901394111 -0.02499245305200515493426749 1.380949037493997444414617
1.940854846951709955504839 0.003520012824012718616328854 1.419238492793629236032871
1.945427423475855066570261 0.02770819310905612425921518 1.424759256014823893821131
1.945427423475855066570261 -0.02066816746103071478213309 1.424759256014823893821131
1.937110579848968061611458 -0.04085484695171005820046872 1.414665916269484569056658
1.937110579848968061611458 0.04085484695171009983383215 1.414665916269484569056658
1.932538003324822728501431 -0.01666666666666662827145373 1.409145153048289689223793
1.92879373622208083460805 -0.009112173635397196116980645 1.404572576524144800202976
1.92879373622208083460805 0.02422115969793613501903629 1.404572576524144800202976
1.965850647352746394247447 -0.0317441766043081510795254 1.447594823957054188667826
1.961533087740791936326445 -0.003221195356866443128274202 1.445189647914108421744572
1.965850647352746394247447 0.02530178589057526308825352 1.447594823957054188667826
1.959127911697845947358587 -0.04518964791410837178453619 1.441021497035727350066736
1.959127911697845947358587 0.04518964791410837872343009 1.441021497035727350066736
1.952405176042946166603542 0.03204299407145438927102532 1.434448170114400067376437
1.954810352085891711482191 0.003520012824012684789221073 1.438616320992781583143483
1.952405176042946166603542 -0.0250029684234290179578597 1.434448170114400067376437
2.796389309503298115089365 -0.008581164029911811375050945 1.407653441815079675691891
2.79819465475164941281605 0.02114147880671916196471116 1.409890847885105991110777
2.79819465475164941281605 -0.03830380686654279165370696 1.409890847885105547021567
2.792589004870286828463577 -0.04638930950329762936679145 1.40584809656672860000981
2.792589004870286828463577 0.04638930950329764324457926 1.40584809656672860000981
2.790783659621935530736891 -0.01666666666666665602702935 1.403610690496702284590924
2.786983354988923800021894 0.001844676407239288469866456 1.401805345248351208908844
2.786983354988923800021894 0.03517800974057261331751079 1.401805345248351208908844
2.839772844083834790751553 -0.002755914481392597592535054 1.442528758565227775534368
2.831093284194075909709909 0.0156349359823960143422994 1.435057517130455373433051
2.839772844083834790751553 0.03402578644618466097160336 1.442528758565227775534368
2.823622042759303951697802 -0.03505751713045530959522722 1.429904843216938115091352
2.823622042759303951697802 0.0350575171304552818396516 1.429904843216938559180562
2.807471241434772668554842 0.009809686433876797090336552 1.417280927868648898737547
2.814942482869544626566949 -0.008581164029911849538967417 1.422433601782165712990036
2.807471241434772668554842 -0.02697201449370046147380187 1.417280927868648898737547
1.992701199833311509479472 -0.0001803712965429473682413969 1.465541947851750181897046
1.996350599916655754739736 0.02585416187010194932760498 1.470135695453467672422221
1.996350599916655754739736 -0.02621490446318783945622855 1.470135695453467672422221
1.986406668904889372129219 -0.04270119983331155388839306 1.461892547768405936636782
1.986406668904889372129219 0.04270119983331156776618087 1.461892547768405936636782
1.982757268821545126868955 -0.01666666666666666296592325 1.457298800166688446111607
1.976462737893122767474097 -0.01051999552355488420918306 1.453649400083344200851343
1.976462737893122767474097 0.02281333780977845560045125 1.453649400083344200851343
2.024973995356642575416117 -0.0213017864720383490184652 1.496275781828681150642524
2.018073324935299339699668 0.004583110518657444731882578 1.492551563657362523329653
2.024973995356642575416117 0.03046800750935323848223035 1.496275781828681150642524
2.014349106763980490342192 -0.04255156365736245671627103 1.487852262847076278973191
2.014349106763980490342192 0.04255156365736247059405883 1.487852262847076278973191
2.003724218171318405268266 0.02570452569415285215548295 1.479428743865471407303858
2.007448436342637254625743 -0.0001803712965429415948648284 1.484128044675757651660319
2.003724218171318405268266 -0.02606526828723873881465956 1.479428743865471407303858
2.849628787931468565375326 -0.01513007101881248296637583 1.451139509892458656636904
2.849814393965734105051979 0.01783205024598934901325364 1.451722201682120072518956
2.849814393965734105051979 -0.04809219228361431841545226 1.451722201682120072518956
2.849298528623599224829377 -0.04962878793146849321082925 1.450953903858192894915646
2.849298528623599224829377 0.04962878793146850708861706 1.450953903858193116960251
2.849112922589333241063514 -0.01666666666666665602702935 1.4503712120685317010782
2.848782663281463900517565 0.01526372391386455681927536 1.450185606034265939356942
2.848782663281463900517565 0.04859705724719788622056882 1.450185606034265939356942
2.872211896752149051792458 -0.02070226558928782434332305 1.492914162341437256387167
2.871734704863918796746702 -0.001540607573080153254799218 1.485828324682874512774333
2.872211896752149051792458 0.01762105044312751653268201 1.492914162341437256387167
2.864648867205355831089264 -0.03582832468287433513864926 1.477015793498697604491099
2.864648867205355831089264 0.03582832468287434207754316 1.477015793498697604491099