# geometry NO_DATA 632
#  x  y  z
3.247833069765743818635428 0.04464329202236198140818502 1.696810222256618594371957
3.245666139531486749092437 -0.01666666666666658663809031 1.695154715776924447823149
3.247833069765743818635428 0.01130995868902864506799766 1.696810222256618594371957
3.244650772848416409033234 0.0146359333005254433485165 1.695666139531486926728121
3.245802336399601806249393 -0.01436353956429478606615646 1.697833069765743552181902
3.245802336399602694427813 0.04363540616534558602701566 1.697833069765743552181902
3.247667535433685692680683 -0.04566613953148680737914589 1.697156111679122947322185
3.246652168750614464443061 -0.04566613953148680737914589 1.697667535433685426227157
3.24665216875061490853227 0.04566613953148689064587273 1.697667535433685426227157
3.247667535433685692680683 0.04566613953148689064587273 1.697156111679122947322185
3.288683430629912862741548 0.005787152711507360242082498 1.672543479059174220680006
3.294341715314956786642142 0.02780391667475332062586801 1.678112104063217646654493
3.294341715314956786642142 -0.01622961125173861401949083 1.678112104063217646654493
3.284358001653079117687639 -0.02310024265653028846534411 1.679007904356499603082398
3.293233074333054677396149 -0.03868343062991262681915572 1.682443220058895683166611
3.273349619671455990044251 -0.03441681202661766442174596 1.689504862583560029776208
3.273349619671455990044251 0.03441681202661765748285205 1.689504862583560029776208
3.284358001653079117687639 0.02310024265653029887368497 1.679007904356499603082398
3.293233074333054677396149 0.03868343062991264763583743 1.682443220058895239077401
3.279808357949937303033039 -0.001083478693284319841622088 1.669108163356778362640398
3.276591569955005667225123 0.005350097296579295683138788 1.671241472658425708530672
3.265583187973382539581735 0.01564381915754174678934163 1.681738430885486135224482
3.257791593986691047746262 0.03339396451749274824516434 1.69010207981089921602802
3.257791593986691047746262 -0.002106326202409245125501958 1.690102079810899660117229
3.336750030645275533203176 0.01074625858061798930331854 1.676956431978366968138516
3.343375015322637811010509 0.03082962255922649247308343 1.68403790992464696962827
3.343375015322637811010509 -0.009337105397990513866446349 1.68403790992464696962827
3.327742538782644921013798 -0.0253612605529315651708977 1.674325841470702513902324
3.338714820403139160731598 -0.03675003064527516960513509 1.682337919048173091596254
3.317700856793340591366359 -0.03861122990765639834132017 1.678927766482426919836257
3.317700856793340591366359 0.03861122990765641221910798 1.678927766482426919836257
3.327742538782644921013798 0.02536126055293158598757941 1.674325841470702513902324
3.338714820403139160731598 0.03675003064527516960513509 1.682337919048172647507045
3.325777749024781293485375 -0.005277896574323062868494549 1.668944354400896834533796
3.321430452081648443396489 0.003416697311941852346905968 1.668013754769706480374225
3.31138877009234455783826 0.005787152711507358507359022 1.672615679781430886308158
3.305694385046172190101288 0.02773171595249708867858551 1.678148204424346090490872
3.305694385046172190101288 -0.01615741052948238554165528 1.678148204424346090490872
3.376004662954056989576657 0.001689024851533606555453737 1.675684361897477936409473
3.376769100115679211882025 -0.000160150528288905476693299 1.676608949587389263413684
3.373416469837277276155874 -0.006545110028514281030886934 1.685022358184866897445886
3.369299402397253118124354 -0.02490080154671456616477521 1.692511179092433426518483
3.369299402397253118124354 0.0118105814896860214502361 1.692511179092433426518483
3.375483763874598697185547 -0.002730823010449860439169401 1.675323613346308748717206
3.367070355277120619064135 -0.01923733914882762990883336 1.680776817900762054591723
3.364238624078176975729093 -0.03502235818486696544704628 1.689550975049409098360798
3.367070355277120174974925 0.01923733914882760909215165 1.680776817900762054591723
3.364238624078176531639883 0.03502235818486695850815238 1.689550975049409098360798
3.375483763874598697185547 0.002730823010449823576295536 1.675323613346308748717206
3.374719326712976474880179 -0.0008816476306273480275516041 1.6743990256563976437576
3.37419842763351818248907 0.000160150528288868911975032 1.674038277105228234020728
3.365785019036040104367657 0.01074625858061797542553073 1.679491481659681539895246
3.357892509518020318637355 0.02829457287791197622750516 1.685305434765304255506635
3.357892509518020318637355 -0.006802055716676011498655896 1.685305434765304255506635
3.184424632306543934134879 0.01281426958793286177695769 1.730315835820755765439571
3.192212316153272499974491 0.0305722352278098713496135 1.737268620101327432081462
3.192212316153272499974491 -0.004943696051944146060974639 1.737268620101327432081462
3.181033535584067983847945 -0.01205023110251011476956595 1.74308376668657771801918
3.175891117762167148441677 0.007450635603978760825027994 1.73616753337315543603836
3.181033535584067983847945 0.02695150231046763988906889 1.74308376668657771801918
3.183290693672410576198217 -0.01800926258803861590429563 1.732199394699200256653171
3.191749675479825132384804 -0.03442463230654367600802601 1.738732177967247327643463
3.181327944165894372474668 -0.0197521636546504827935955 1.734162144205716460376721
3.18517891044196455041515 -0.03616753337315554289732589 1.742621126013130572474097
3.181327944165894372474668 0.0197521636546504827935955 1.734162144205716460376721
3.18517891044196499450436 0.03616753337315554983621979 1.742621126013130572474097
3.183290693672410576198217 0.01800926258803861590429563 1.732199394699200034608566
3.191749675479825132384804 0.03442463230654367600802601 1.738732177967247327643463
3.175965650499129822037503 -0.000251296948161604867966884 1.723783052552708472404674
3.175294352538443831690529 0.00109129897321034096888126 1.724203053565232623967063
3.173331603031927627966979 0.002834200039822210026585481 1.726165803071749049735217
3.172040151486097414590404 -0.0002512969481616054642780789 1.727708551565740879851774
3.237375057457420268747228 -0.03551483160734335287056496 1.721723757473824001351659
3.221723757473824001351659 -0.03551483160734335287056496 1.736464225601123789743951
3.221723757473824001351659 0.03551483160734335287056496 1.736464225601123789743951
3.237375057457420268747228 0.03551483160734335287056496 1.721723757473823557262449
3.238545184163520662679048 -0.004212231640151329822852055 1.707242584196328127887909
3.230136468376253233714124 0.01463593330052536008178965 1.714485168392656522229345
3.238545184163520662679048 0.03348409824120204825170788 1.707242584196328127887909
3.214485168392656966318555 0.01281426958793286004223422 1.729225636519956310621637
3.207242584196328571977119 0.03166243452860954821215245 1.736723520450927704672495
3.207242584196328571977119 -0.006033895352743828127684012 1.736723520450928148761705
3.389234509389926763844869 0.00576870708940412525028707 1.721983177488108474051387
3.394617254694964003647328 0.02833654981266425093577865 1.727818119061107271505762
3.394617254694964003647328 -0.01679913563385599523103409 1.727818119061107271505762
3.383011366347372650409397 -0.03923450938992679298822353 1.716600432183072122427347
3.383011366347372650409397 0.03923450938992679298822353 1.716600432183071678338138
3.377628621042336298785358 -0.01666666666666666990481716 1.710765490610073102928368
3.371405477999783073528306 -0.01731060063858748387932707 1.705382745305036751304328
3.371405477999783073528306 0.01602273269474584899141334 1.705382745305036751304328
3.428396249487682290180146 0.005843442144808583434134608 1.727447192657126651127442
3.431080706352447329265942 -0.0004745284152779874475847066 1.73060617793716997603326
3.430620084526199597974028 -0.0004467152372178197499048846 1.739176775478141978581448
3.427475005835186383507107 -0.02295682404869308149142348 1.744588387739070878268421
3.427475005835186383507107 0.02206339357425753794350598 1.744588387739070878268421
3.426352893088951745426129 -0.009930154942270102286228095 1.725878364673674170148843
3.417782295547979742877942 -0.02612229319365888535742215 1.728999982426014714320672
3.419365030120462112250834 -0.03917677547814202299036879 1.739139407950439863981273
3.417782295547979742877942 0.02612229319365877433511969 1.728999982426014714320672
3.419365030120462112250834 0.03917677547814192584585413 1.739139407950439641936669
3.426352893088951745426129 0.009930154942269984325031729 1.725878364673673726059633
3.423668436224186706340333 -0.003612184382183532705551388 1.722719379393630845243024
3.421625079825455717497107 0.0004745284152778700284894264 1.72115055141017769813061
3.41305448228448327085971 0.005768707089404122648201856 1.72427216916251868639165
3.406527241142241368976329 0.0260475581382543126818252 1.728962614898312155631288
3.406527241142241368976329 -0.01451014395944606044652758 1.728962614898312377675893
3.138137559325542724764091 0.006603181605121301658845034 1.773497364810350918062909
3.14406877966277109592852 0.02807407426399773087144496 1.779201068609016278543322
3.14406877966277109592852 -0.01486771105375512755375489 1.779201068609016278543322
3.105966683964767938164186 -0.04278554130055615273287017 1.798752225265324078407048
3.104855004084397407382312 -0.0119477574365742730821971 1.797504450530648334449779
3.105966683964767049985767 0.01889002642740746432115095 1.798752225265324078407048
3.134534810632956691733852 -0.02223831075943853707865827 1.779730584640747181879306
3.143251853016570951382391 -0.03813755932554309391324665 1.783415884493588787762519
3.125047139038193755311568 -0.03160520196454384006523597 1.789218256235509452167776
3.119456969370188126333687 -0.04750445053064839689982435 1.797935298619123933860919
3.125047139038194643489987 0.03160520196454398578200795 1.789218256235509452167776
3.119456969370187682244477 0.04750445053064854261659633 1.797935298619123933860919
3.134534810632956691733852 0.02223831075943853013976437 1.779730584640747181879306
3.143251853016570951382391 0.03813755932554309391324665 1.783415884493588787762519
3.129420516941928021026342 -0.0007674181005621084081594341 1.76981206495750909013509
3.126634694895541688453022 0.00480422599220976277722972 1.77183046890333284473229
3.117147023300779640209157 0.0141711171973152114805794 1.78131814049809555910997
3.110445173752403036360192 -0.0007674181005619604145628898 1.788787408147033852756635
3.179400313247601417288024 -0.0384385889040287226370296 1.767341662112277944629568
3.167341662112278299900936 -0.0384385889040287226370296 1.77897658624817212036362
3.167341662112278299900936 0.0384385889040287226370296 1.778976586248171898319015
3.179400313247600529109604 0.0384385889040287226370296 1.767341662112277944629568
3.179898007818631189280723 -0.01432128663338329277454619 1.755780705547985487413598
3.173620062231294003396442 0.00745063560397875822294278 1.761561411095971196871801
3.179898007818631189280723 0.02922255784134081615932566 1.755780705547985487413598
3.161561411095970886009354 0.006603181605121301658845034 1.773196335231865150561248
3.155780705547985398595756 0.02837510384248335265633401 1.779050553819773394792492
3.155780705547985398595756 -0.01516874063224074933864394 1.779050553819773394792492
3.442001499999414626529415 -0.0001318595701455815838443186 1.766265903548844828918618
3.44600074999970695799334 0.02520297376260338673148453 1.770534057096813329579277
3.446000749999707402082549 -0.02546669290289444581576461 1.770534057096813329579277
3.43744405904776506588405 -0.04200149999941563822014601 1.762266653548552719499298
3.43744405904776506588405 0.04200149999941552719784355 1.762266653548552719499298
3.433444809047472734420126 -0.01666666666666676704933181 1.75799850000058421883864
3.428887368095822729685551 -0.008445215237802186636351109 1.75399925000029210941932
3.428887368095822729685551 0.0248881180955311462343893 1.75399925000029210941932
3.483978587963370898705762 0.01597689209235708673872978 1.781998304128985077809944
3.491471963050953419838152 -0.0009901419171933004137464707 1.790481821133760309550098
3.498769985056333631234793 0.01558618592795383769877837 1.799310225425690301648274
3.498574631974131765588254 -0.01705737283106992241421551 1.799655112712845062006295
3.498574631974132209677464 0.04822974468697760475066616 1.7996551127128452840509
3.479810034000737850590212 -0.02431400001762366175350749 1.778819892083545184391369
3.470981629708808302581247 -0.03999052476709703124457818 1.779249033257069179114751
3.482448205676821562093437 -0.04931022542569042654836409 1.791255849594439064631501
3.470981629708808302581247 0.03999052476709692716116962 1.779249033257069179114751
3.482448205676821562093437 0.04931022542569041960947018 1.791255849594439064631501
3.479810034000737850590212 0.02431400001762355073120503 1.778819892083545184391369
3.472316658913155329457823 -0.007346966008073274601031244 1.770336375078769730606609
3.468148104950522725431483 0.0009901419171931915598483531 1.767157963033329837188035
3.459319700658593177422517 -0.0001318595701455792528096478 1.767587104206853831911417
3.454659850329296233439891 0.02388177310459435598311018 1.771194657425817720053374
3.454659850329296233439891 -0.02414549224488541506739026 1.771194657425817720053374
3.047385891826087433997827 0.0434716155526627262561945 1.846085723726575533731875
3.044771783652174157452919 -0.01666666666666665602702935 1.844121699602418562591311
3.047385891826087433997827 0.01013828221932939685490105 1.84608572372657531168727
3.04406285738526438677809 0.01524881413284666017982083 1.844771783652175090040259
3.04596803929226656038054 -0.01285630285266164615776141 1.847385891826087256362143
3.04596803929226656038054 0.04335393111835495610906221 1.847385891826087700451353
3.047207408731208211349895 -0.04477178365217496236461159 1.846557324681452616488286
3.046498482464298440675066 -0.04477178365217496236461159 1.847207408731209143937235
3.046498482464298440675066 0.04477178365217496930350549 1.84720740873120936598184
3.047207408731208211349895 0.04477178365217496930350549 1.846557324681453282622101
3.097659961249381588288543 -0.01202075111835682226513189 1.804662996524772466955255
3.098829980624690172419378 0.01897254346435866406705983 1.805815934923618470975271
3.098829980624690172419378 -0.04301404570107245778354255 1.805815934923618470975271
3.088472581689180262998207 -0.03233563798117080473337737 1.824145953773131489938919
3.097477086721740935360003 -0.0476599612493821545022854 1.818806749913180809130608
3.072975934397823127852689 -0.03467567673178864606775562 1.838992517014733429903117
3.072975934397823127852689 0.03467567673178868770111904 1.838992517014733651947722
3.088472581689180262998207 0.03233563798117099208351277 1.824145953773131711983524
3.097477086721741379449213 0.04765996124938230021905738 1.818806749913180809130608
3.088655456216820915926746 -0.001342343398455167480243233 1.810002200384723147763566
3.080820970559568827695784 0.01432662791604901765529778 1.816494342643519832591892
3.065324323268210804371847 0.01536649856715446502142264 1.83134090588512177255609
3.057662161634105757457291 0.03337550863227644465380806 1.839695326867926805647357
3.057662161634105757457291 -0.002642511497967560581134894 1.839695326867926583602753
3.105835280281359800369501 -0.04768277840067046413619067 1.803475825666313703266042
3.103475825666313525630358 -0.04768277840067047801397848 1.805798783440468513461497
3.103475825666313525630358 0.04768277840067060291406875 1.805798783440468291416892
3.105835280281358912191081 0.04768277840067061679185656 1.803475825666313703266042
3.105877520029756588826331 -0.0429638691705782199692365 1.801158610799664439028334
3.10467667621437515279581 -0.011947757436574280021091 1.802317221599329055692351
3.105877520029756144737121 0.01906835429742952808807033 1.801158610799664439028334
3.102317221599328878056667 -0.01202075111835683093874927 1.804640179373484087932411
3.101158610799664039348045 0.01899536061564697370096511 1.805804526347973837374639
3.101158610799664039348045 -0.04303686285236078129523563 1.805804526347974281463848
3.499496901167145512800971 -0.01563450114344020619450149 1.801019181594467832852047
3.49974845058357297844509 0.01719573335703860825218747 1.801283714939653890496629
3.49974845058357297844509 -0.04846473564391901717174349 1.801283714939653890496629
3.499208210214215686306716 -0.04949690116714548782095306 1.800767632178040589252532
3.499208210214216130395926 0.04949690116714547394316526 1.800767632178040589252532
3.498956660797788664751806 -0.01666666666666667337426411 1.800503098832854753652555
3.498667969844859726435971 0.01508308709509931927472692 1.800251549416427288008435
3.498667969844859726435971 0.04841642042843265214546733 1.800251549416427288008435
3.535585493943211865541798 0.01353788260616693890636686 1.829516780693204225372028
3.542792746971605399863847 0.03245670988271292384252931 1.837411802301227137235173
3.542792746971605399863847 -0.005380944670379065111753825 1.837411802301227581324383
3.51057782217163172333585 -0.03502144461610857961719745 1.808325661561752450978702
3.52696246417474590373331 -0.03558549394321265657570308 1.823145911534617358285004
3.501118408533358650203127 -0.04943595067289592581705193 1.801634491294971995856145
3.501118408533358650203127 0.04943595067289591193926412 1.801634491294971995856145
3.51057782217163083515743 0.03502144461610857961719745 1.808325661561752228934097
3.52696246417474590373331 0.03558549394321267045349089 1.823145911534617136240399
3.519200851940097241055128 -0.01610261733956257212962981 1.814696530720339318065726
3.510023462965377039068926 0.002252160609879332812260921 1.807771302355497766711778
3.500564049327103965936203 -0.01563450114344020619450149 1.801080132088717533633826
3.500282024663551982968102 0.01713478286278904624828634 1.801314190186778407820611
3.500282024663551982968102 -0.04840378514966945516784236 1.801314190186778407820611
3.56114299308512016750683 -0.03435397150344750294426177 1.845496964588568156173665
3.562326049659708449013351 -0.01002670899297861649424046 1.840993929177135779440277
3.56114299308512016750683 0.01430055351749042781561716 1.84549696458856793412906
3.557823014248275406146149 -0.04099392917713571421467478 1.843932572558318216948692
3.557823014248276294324569 0.04099392917713555462011499 1.843932572558317994904087
3.554503035411431532963888 0.03786514511663580800915341 1.842368180528068055679114
3.559006070822864131741881 0.01353788260616676716874274 1.83942953714688606225991
3.554503035411431532963888 -0.01078937990430212101600205 1.842368180528068499768324
3.038497772687064557572967 -0.004010151904373732145714371 1.892507924591438683847855
3.030486999456373897743333 0.01433903061183697605351917 1.885015849182877234468947
3.038497772687064113483757 0.03268821312804771200832832 1.89250792459143846180325
3.039458958054865433950908 -0.03459726800469044294406018 1.873501217655108685988807
3.030993293063669824505268 -0.01961311718756784949757588 1.882675808913214066109276
3.038794775705266459908671 -0.03501584918287739545128545 1.891641109582225865892724
3.030993293063668936326849 0.0196131171875677974558716 1.882675808913214066109276
3.038794775705266459908671 0.03501584918287736769570984 1.891641109582225865892724
3.039458958054864545772489 0.03459726800469041518848456 1.873501217655108685988807
3.039616846797167148963581 -0.002681787205177127604571741 1.857701365997654896489166
3.031360472395065563944172 0.01524881413284662895479826 1.865402731995309704160491
3.039616846797167148963581 0.03317941547087040199404129 1.857701365997655118533771
3.022894807403869954498532 0.001682515849544019212458146 1.874577323253414862236355
3.022685516814777262339931 -0.001263934671357140864661472 1.876050548513865656730104
3.588161450394097506944036 0.007727873656395795043394514 1.874035819767432942128949
3.594080725197049019925544 0.02922265738382751748547506 1.880313815126013254896975
3.594080725197049019925544 -0.01376691007103589443893998 1.880313815126013254896975
3.580734037367226285653032 -0.0381614503940983923468977 1.86811654496448231732586
3.580734037367226285653032 0.03816145039409835071353427 1.868116544964482095281255
3.574814762564275216760734 -0.01666666666666669766039277 1.861838549605901782513229
3.567387349537403551380521 -0.02186525859888011069642744 1.85591927480295115771014
3.567387349537403551380521 0.01146807473445322390903645 1.85591927480295115771014
3.630037711549020329471205 0.009001782144089323645097522 1.87896407059506920234071
3.634270192382576869505328 -0.0005368204769756652634110639 1.883733371905601305940081
3.636817538303999342019779 0.005631512319820321244012717 1.892335115477422613494696
3.635132403391864386321686 -0.02003693649093569312258367 1.896167557738710929271519
3.635132403391864830410896 0.03129996113057623846609445 1.896167557738711373360729
3.628306157939447107452224 -0.01246488936323527502159081 1.877769337462471987976187
3.619704414367626021942215 -0.02859473555292618013323747 1.881901684529157403602539
3.623983313898620828297226 -0.04233511547742258712689889 1.891698161233575925521677
3.619704414367626021942215 0.0285947355529262425832826 1.881901684529157403602539
3.623983313898620828297226 0.04233511547742267733251964 1.891698161233575925521677
3.628306157939447107452224 0.01246488936323531665495423 1.877769337462471543886977
3.624073677105890567418101 -0.002926286742170284161518312 1.873000036151939440287606
3.62234212349631690130991 0.0005368204769757075472957908 1.871805303019342225923083
3.613740379924495815799901 0.007727873656395799380203204 1.875937650086028085638645
3.606870189962247508219662 0.0273208270652327278593674 1.881264730285310493584916
3.606870189962247508219662 -0.0118650797524410996086619 1.881264730285310715629521
3.041561098232883342262767 -0.01389894802977739707294802 1.909822761085560260951866
3.045780549116440916179727 0.01099548353643992927575201 1.906987169520447000792274
3.045780549116440916179727 -0.03879337959599479801475752 1.906987169520447000792274
3.044616731089026195888891 -0.04156109823288398757989981 1.905603310202002464990301
3.044616731089026195888891 0.04156109823288406390773275 1.905603310202002242945696
3.040397280205468621971931 -0.01666666666666658316864336 1.908438901767115725149893
3.043452913061611475598056 0.005900128844721076216972566 1.904219450883557707143723
3.043452913061611475598056 0.03923346217805440128145733 1.904219450883557707143723
3.088756916905609717360903 -0.004028161388439551945928052 1.942785078294049228020413
3.080200841011730972240912 0.01487532853299239690714195 1.935570156588098500449746
3.088756916905609273271693 0.03377881845442434055604153 1.942785078294049228020413
3.07298591930578002262564 -0.03557015658809860314537588 1.927502270945827156367613
3.07298591930578002262564 0.03557015658809861702316368 1.927502270945827156367613
3.057214921705949883801168 0.005004541891654471115480352 1.912219463597605084714814
3.064429843411901277505649 -0.01389894802977746819661053 1.920287349239876206752342
3.057214921705949883801168 -0.03280243795120941358023359 1.912219463597605084714814
3.644981334030925168576687 -0.006379081527761679831778352 1.910162458538527063822698
3.647490667015462761924027 0.02193558583649674390003703 1.912796918123442324599637
3.647490667015461873745608 -0.03469374889202019029976753 1.912796918123442324599637
3.641973089842038824315296 -0.04498133403092509363663254 1.907653125553989692519963
3.641973089842039712493715 0.04498133403092517690335939 1.907653125553989470475358
3.639463756857502119146375 -0.0166666666666665796991964 1.905018665969074875832234
3.636455512668615774884984 0.0006128463507454097198429155 1.902509332984537282484894
3.636455512668615774884984 0.0339461796840787449758281 1.902509332984537282484894
3.685114974263760778683263 0.01443393397318888139724269 1.930435326056167077979353
3.692557487131880478159474 0.03288224157028282745862668 1.938543113507975146347917
3.692557487131880922248683 -0.004014373623905066398864783 1.938543113507975146347917
3.669683163353252286498218 -0.02949495188572148068884005 1.917901522422824633906657
3.683539818830898759927095 -0.03511497426376061770092463 1.930641811553732711814746
3.660459009554704934430447 -0.04437997762196085882457908 1.915602802124157344465516
3.660459009554705378519657 0.04437997762196094903019983 1.915602802124157122420911
3.669683163353252286498218 0.0294949518857215708944608 1.917901522422824189817447
3.683539818830898759927095 0.03511497426376061076203072 1.930641811553732711814746
3.671258318786113861165177 -0.01104664428862753462745605 1.917695036925258555982055
3.664844176176586643123301 0.001781640930427373734762364 1.91306253524615854644253
3.655620022378038846966319 -0.006379081527761677229693138 1.910763814947491257001388
3.652810011189020045208053 0.02133422942753251949632443 1.913097596327924421188982
3.652810011189019157029634 -0.03409239248305596242660798 1.913097596327924421188982
3.708951232986318125028902 -0.03781266721343706088687142 1.946763900199755426001502
3.709329766193526722872775 -0.01095153348059320699836583 1.943527800399510230278111
3.708951232986318125028902 0.01590960025225055668451901 1.946763900199755426001502
3.706093666393281527149384 -0.04352780039951043011825504 1.9456475338530163643469
3.706093666393281527149384 0.0435278003995105203238758 1.9456475338530163643469
3.703236099800245373359076 0.04129506770603273702047176 1.944531167506277302692297
3.706472199600489680904047 0.01443393397318897333758692 1.942411434052771612712718
3.703236099800245373359076 -0.01242719975965488055091868 1.944531167506277302692297
3.096748086470533678493666 -0.01549546451451699544121787 1.953837514605540892631552
3.098374043235266661611149 0.0145859552893500780262892 1.952797158916882880319577
3.098374043235266661611149 -0.04557688431838398390727463 1.952797158916882880319577
3.09747837416842930480243 -0.04674808647053374510704771 1.952211557840808353603279
3.09747837416842930480243 0.04674808647053366184032086 1.952211557840808353603279
3.095852417403696321684947 -0.016666666666666753171544 1.953251913529466365915255
3.096582705101591947993711 0.01162341500352604035939397 1.951625956764733160753167
3.096582705101591947993711 0.0449567483368593784343048 1.951625956764733160753167
3.148882537964814432029925 0.04354951988980668847739608 1.994666981924992699148902
3.147765075929628508788483 -0.01666666666666636806293234 1.99565729790971713164538
3.148882537964814432029925 0.01021618655647336254554958 1.994666981924992699148902
3.13871658032954181649643 -0.001430324533505969832394844 1.99014690486304801630979
3.13078554676464193562424 0.01443174259629470025656506 1.983646195831653802343908
3.144127280999360785074259 -0.04776507592962778853129535 1.992019502979450296109576
3.123167375698061576372311 -0.03252873379646739615544959 1.975183301307642302901968
3.127460614332694177619487 -0.04776507592962778853129535 1.978046215408769459287441
3.135078785399276313228256 0.03252873379646763207784232 1.986509109932781846907801
3.119529580767795184925717 0.03476365786683954794966667 1.971545506377375911455374
3.144127280999362117341889 0.04776507592962808690373322 1.992019502979451184287996
3.107618171066580448069772 0.00260152668565597280925239 1.960219697752236367449541
3.115236342133160807321701 -0.0154954645145169642161953 1.968682592276247866891481
3.107618171066580448069772 -0.03359245571468984226104482 1.960219697752236145404936
3.155326909287217151955929 -0.04363836842430716261853618 1.998965277711524546333521
3.154215538076321934113366 -0.01237447966792505626987264 1.997930555423048648577833
3.155326909287217151955929 0.0188894090884567759924817 1.998965277711524324288916
3.153180815787846036357678 -0.04793055542304849869772454 1.996857499691613746506391
3.153180815787846036357678 0.0479305554230487831923746 1.996857499691613746506391
3.151034722288475808937847 0.04371499938322738476603746 1.994749721671702946679261
3.152069444576951262604325 0.01245111062684555076895965 1.995822777403138070795308
3.151034722288475808937847 -0.01881277812953655731442737 1.994749721671702946679261
3.738084633652786870072759 0.00773000032477904469585539 1.974113699842935609751748
3.74404231682639343503638 0.029147967310899556420134 1.980354350165052013110767
3.74404231682639343503638 -0.01368796666134150172289274 1.980354350165052013110767
3.730233216752763869550336 -0.03808463365278717815964882 1.968156016669329488877338
3.730233216752763869550336 0.03808463365278721285411834 1.968156016669329488877338
3.724275533579157304586715 -0.01666666666666663867979459 1.961915366347212863473715
3.716424116679133859975082 -0.0228668998278060871254258 1.955957683173606520554699
3.716424116679133859975082 0.01046643350552725094948503 1.955957683173606520554699
3.776492511327088408279451 0.001729207996475274223407981 1.975236696669385949576281
3.777043161660900594256418 -0.0006279073288517133611189025 1.97641525433204923167807
3.770556340877359247087952 -0.01234573423823197985127464 1.985062541329808638579379
3.763518869760005713942519 -0.03074160890137392701526586 1.99253127066490431928969
3.763518869760004825764099 0.006050140424909984659951334 1.99253127066490431928969
3.774331709510085453018746 -0.006050811630481611920473473 1.973703802181234312485003
3.765684422512326712251252 -0.02208957096829657421044324 1.977882756008049636164969
3.76135840354578832034349 -0.03506254132980862747714923 1.988062937493960458112952
3.765684422512326268162042 0.0220895709682965846187841 1.977882756008049414120364
3.76135840354578832034349 0.03506254132980861359936142 1.988062937493960236068347
3.774331709510085453018746 0.006050811630481609318388259 1.973703802181234312485003
3.773781059176273267041779 -0.003693696305154624010685938 1.972525244518571030383214
3.771620257359270311781074 0.0006279073288517113011347748 1.970992350030419615336541
3.76297297036151157101358 0.007730000324779032552791058 1.975171303857234494927297
3.75648648518075578550679 0.02809036329660031389154895 1.980883152172201677743146