# geometry NO_DATA 420
#  x  y  z
0.6838826552014302118109867 0.01542744191402504322363498 0.4821643990889158404300474
0.6919413276007150281898817 0.03264343044878834088073916 0.4901527809799766655096676
0.6919413276007150281898817 -0.001788546620738249229298766 0.4901527809799766655096676
0.6887275993502567361659317 -0.003474099000602450405122967 0.4922016983508590293183715
0.6810612521488398352076388 0.01426263103444894847493529 0.4844033967017180586367431
0.6887275993502567361659317 0.03199936106950035386020659 0.4922016983508590293183715
0.6832034985112805935969504 -0.0174640445407237485109242 0.4826541766431837743311917
0.6916608598475941782623977 -0.03388265520142996756192133 0.4904919256031764485115332
0.6823938058930398842250042 -0.01798478604101185276964436 0.4834638692614244281919866
0.6896491494132446220532984 -0.03440339670171806141230064 0.4919212305977379573462827
0.6823938058930398842250042 0.01798478604101184236130351 0.4834638692614244281919866
0.6896491494132446220532984 0.03440339670171806835119455 0.4919212305977379573462827
0.6832034985112805935969504 0.01746404454072373810258334 0.4826541766431837743311917
0.6916608598475941782623977 0.03388265520142996756192133 0.4904919256031764485115332
0.6754252938651166271455395 -0.0002480560059604574132431642 0.4743266501289229997162522
0.6750266049280880809035921 0.0005493218680966201628718126 0.4744772830599910951043796
0.6742169123098473715316459 0.00107006336838472442159198 0.475286975678231859987477
0.6738059086286353194239496 -0.0002480560059604550279983848 0.4759460353654044184601446
0.7353300172949778223951967 0.01267329874337786745075451 0.4793399654100444218229882
0.7426650086474888556864471 0.03133664937168893771524125 0.4866749567625555661365411
0.7426650086474888556864471 -0.005990051884933200211647009 0.4866749567625555661365411
0.7333673155648858799082745 -0.0193062571278241681960175 0.4813706316032414500583059
0.742022102147975815000791 -0.03533001729497772802623956 0.4880287342246869553008537
0.7240356402507304167670554 -0.03397623983284643600644159 0.4900826945410761692478729
0.7240356402507304167670554 0.0339762398328464429453355 0.4900826945410761692478729
0.7333673155648858799082745 0.0193062571278241820738053 0.4813706316032413945471546
0.742022102147975815000791 0.03533001729497774190402737 0.4880287342246868442785512
0.7266752307118879983249826 -0.0006429064995131042199033589 0.4726818627885989720915916
0.725355435481309207546019 0.001996683961644404696478272 0.4733587515196645556514454
0.7160237601671536333824974 0.01542744191402505363197584 0.4820708144574994413744662
0.7080118800835768499979395 0.03273701508020482320304723 0.4901059886642684659818769
0.7080118800835768499979395 -0.001882131252154719408542505 0.4901059886642684659818769
0.7899647689850246567999648 0.003403795363284341235488029 0.4700704620299509528535964
0.7949823844925123506044429 0.02670189768164217547496975 0.4750880775374387021692257
0.7949823844925123506044429 -0.01989430695507349300399369 0.4750880775374387021692257
0.7836540252167125686355575 -0.02529478628000223633387478 0.4770225895650210823362158
0.7929857005308680317767767 -0.03996476898502450414429887 0.4797228292274854366539216
0.7720049740575334329406587 -0.03533001729497773496513346 0.4866749567625555661365411
0.7720049740575334329406587 0.03533001729497774190402737 0.4866749567625555661365411
0.7836540252167125686355575 0.02529478628000223633387478 0.4770225895650210823362158
0.7929857005308679207544742 0.03996476898502450414429887 0.4797228292274854366539216
0.7806330936708691936587456 -0.001996683961644402094393058 0.4673702223674865985358906
0.7763190338642014243220046 0.006631435651691165202026301 0.4696875982125099935338142
0.7646699827050223996494083 0.01267329874337786745075451 0.4793399654100445328452906
0.7573349913525111443135529 0.03133664937168893771524125 0.4866749567625556771588435
0.7573349913525111443135529 -0.005990051884933201079008747 0.4866749567625556771588435
0.8355833565769594795114017 0.01216662017941414972166392 0.4788332868460807301147497
0.8427916782884797841646218 0.03108331008970710573890983 0.4860416085576009792568186
0.8427916782884797841646218 -0.006750069730878796754602877 0.4860416085576009792568186
0.8245111914776097616908146 -0.02554812556198410994356962 0.472261168233983452680036
0.8361602426367886753411085 -0.03558335657695960857482831 0.4816601961495361461373932
0.8150528465224633478669602 -0.03996476898502449720540497 0.475088077537438757680377
0.8150528465224633478669602 0.03996476898502450414429887 0.475088077537438757680377
0.8245111914776096506685121 0.02554812556198412035191048 0.472261168233983452680036
0.8361602426367886753411085 0.03558335657695962939151002 0.4816601961495360351150907
0.8239343054177805658611078 -0.006631435651691160865217611 0.4694342589305280921685437
0.819493575970121956864034 0.002250023243626286112428758 0.4672435527264955923421041
0.8100352310149756540624821 0.003403795363284341235488029 0.4700704620299509528535964
0.805017615507487960258004 0.0267018976816421789444167 0.4750880775374386466580745
0.805017615507487960258004 -0.01989430695507349300399369 0.4750880775374387021692257
0.8840284113010429267731638 0.01527981638452338870870495 0.4819448302245520343589646
0.8920142056505213634665097 0.03264156101889967992457642 0.4899322774006685254910565
0.8920142056505213634665097 -0.002081928249852905976613471 0.4899322774006685254910565
0.8803106680106026482590664 -0.01961176787800256865468285 0.4796155900428929474976769
0.8897690129657491731052232 -0.0340284113010429559165182 0.4883805098569678482256506
0.8716297956934144774976403 -0.03558335657695961551372221 0.4860464391164548425550151
0.8716297956934143664753378 0.03558335657695962939151002 0.4860464391164548425550151
0.8803106680106026482590664 0.01961176787800258253247065 0.4796155900428929474976769
0.8897690129657489510606183 0.0340284113010429628554121 0.4883805098569677927144994
0.874570066345896401927007 -0.002250023243626274836726164 0.4731799104104772446532934
0.8730975157402284247964985 0.0006950779677096328035973416 0.4724024377725189460797139
0.8644166434230404760796773 0.01216662017941415492583435 0.4788332868460807856259009
0.8572083217115201714264572 0.03108331008970710573890983 0.4860416085576009792568186
0.8572083217115201714264572 -0.006750069730878794152517663 0.4860416085576010347679698
0.9259576547999794904342252 0.001318153087724671570363233 0.4753604982877451812228742
0.9264674422157832545110523 -0.000298578256117160330262994 0.476168863959666066598686
0.9193120935321008602159054 -0.01401211911124764647462726 0.4846514864210580419978669
0.9116469574326147018439315 -0.03199693886563897970987114 0.4923257432105290209989334
0.9116469574326147018439315 0.003972700643143684158531403 0.4923257432105290209989334
0.9254641333679215486895941 -0.002305195951840540748156716 0.4751655551118044162883791
0.9169815109065295732904133 -0.01867328436239004685326393 0.4829547524321247120582257
0.9103196836549051207398975 -0.03465148642105799620116713 0.4916323180694573413695991
0.9169815109065295732904133 0.01867328436239005379215783 0.4829547524321247120582257
0.9103196836549051207398975 0.03465148642105800314006103 0.4916323180694573413695991
0.9254641333679215486895941 0.002305195951840557228029738 0.4751655551118044162883791
0.9249543459521177846127671 -0.0006884646079987089559507063 0.4743571894398835309125673
0.924460824520059842868136 0.000298578256117176484875364 0.4741622462639427659780722
0.9159782020586679784912576 0.01527981638452339044342843 0.4819514435842630062367675
0.9079891010293339448367078 0.03263494765918877049681868 0.4899355840805240114299579
0.9079891010293339448367078 -0.002075314890142000018302681 0.4899355840805240114299579
0.6344459752576421252001637 0.01424165740236213451019864 0.5310081867768721153311162
0.6422229876288210181911609 0.03202096599333766058226303 0.5386853364402076627115434
0.6422229876288210181911609 -0.003537651188613401102844858 0.5386853364402076627115434
0.6400905244137586880270874 -0.001869526553553145856167994 0.541960050967311812719629
0.6321051857559114584006466 0.01538390871440412956128174 0.5339201019346238030749419
0.6400905244137586880270874 0.03263734398236140671345495 0.541960050967311812719629
0.6334744448091380597531952 -0.01803960532188444293444363 0.5323618028848291494625755
0.6419379265079258045645361 -0.03444597525764218903798763 0.5396127799514647271905687
0.6326247395463383549341074 -0.01751373199886618534093508 0.5332115081476288542816633
0.6404468422689948425841067 -0.03392010193462393491392604 0.5416749898464165990930042
0.6326247395463383549341074 0.01751373199886619574927593 0.5332115081476289653039657
0.6404468422689948425841067 0.03392010193462394185281994 0.5416749898464165990930042
0.6334744448091380597531952 0.01803960532188445334278448 0.5323618028848291494625755
0.6419379265079259155868385 0.03444597525764220291577544 0.5396127799514647271905687
0.6259824935588543803888228 -0.0002602967309089082971820805 0.523757209710236537603123
0.6252960242312455285684791 0.00111264192430887459868416 0.5241833823069366182778595
0.6244463189684458237493914 0.0005867686012906173304362611 0.5250330875697362120746448
0.6242830830332548597283449 -0.0002602967309089104113763169 0.5254566202358359472412985
0.6885963870731016678305991 -0.03457884118497078773657449 0.5231317382225437739862173
0.6731317382225437961906778 -0.03457884118497078773657449 0.5385859002570582143576416
0.6731317382225437961906778 0.03457884118497080855325621 0.5385859002570581033353392
0.6885963870731016678305991 0.03457884118497081549215011 0.5231317382225437739862173
0.6886398771086303938204765 -0.00364954348385517629571595 0.5077105794075145173138708
0.6808858076655870394944259 0.01426263103444896408744658 0.515421158815029145650044
0.6886398771086303938204765 0.03217480555275309406226825 0.5077105794075145173138708
0.6654211588150291678545045 0.0142416574023621379796456 0.5308753208495435860214684
0.6577105794075146505406337 0.03215383192066626621974379 0.5386189034765432870344171
0.6577105794075146505406337 -0.003670517115941999367750848 0.5386189034765433980567195
0.9346636449326825024641607 0.01400604346796801603913796 0.5306727101346344621646267
0.9423318224663412845387711 0.03200302173398400507053907 0.5383408876682932442392371
0.9423318224663411735164686 -0.003990934798047973859624893 0.5383408876682932442392371
0.9269924295773841471657306 -0.03466364493268266067094174 0.5230045326009759021346213
0.9269924295773841471657306 0.03466364493268266067094174 0.5230045326009757911123188
0.9193242520437252540688178 -0.0166666666666666664353702 0.5153363550673171200600109
0.9116530366884268987703877 -0.02934847417856498857924308 0.5076681775336585600300054
0.9116530366884268987703877 0.003984859154768344291497328 0.5076681775336585600300054
0.9759296641425065921282567 0.001208049740761942339450918 0.5252783855982551264318658
0.9763708693768246016375656 -0.0003256392721257236650030109 0.5260452301046989465049819
0.9690827661481904442553059 -0.01425056718514278175646837 0.5345413830740951555142715
0.9613534576852381663414349 -0.03212528359257138532711906 0.542270691537047544450445
0.9613534576852381663414349 0.003624149222285827452033624 0.542270691537047544450445
0.975101688706769054171275 -0.002864000612236990931519509 0.5247760494346432880163889
0.9666055357373728451619854 -0.01920502800677793137085203 0.5319418908046902316755222
0.9601454079444762257367074 -0.03454138307409526653657394 0.5409403799376981680779863
0.9666055357373728451619854 0.01920502800677793830974593 0.5319418908046902316755222
0.9601454079444762257367074 0.03454138307409528041436175 0.5409403799376982791002888
0.975101688706769054171275 0.002864000612236993099923854 0.5247760494346433990386913
0.9746604834724508226173612 -0.001330311599349324764435254 0.5240092049281994679432728
0.9738325080367133956826819 0.0003256392721257259960376818 0.5235068687645877405500983
0.9653363550673171866733924 0.01400604346796801603913796 0.5306727101346346842092316
0.9576681775336586266433869 0.03200302173398401200943297 0.5383408876682933552615395
0.9576681775336586266433869 -0.003990934798047973859624893 0.5383408876682933552615395
0.6364248780762974400104781 -0.006290146308442841512065247 0.5927150243847405519659333
0.6291399024610379031585694 0.01247323579437145148196553 0.5854300487694807930694196
0.6364248780762975510327806 0.03123661789718575401697542 0.5927150243847404409436308
0.6400360375438765014877163 -0.03399283343110581778745427 0.5740107498533412178076674
0.6312957254686005770238921 -0.01942288220058678918644723 0.5833924409047483994328331
0.6378620934146725929281274 -0.03543004876948095682731577 0.5920555242869680601103255
0.6312957254686005770238921 0.01942288220058678571700028 0.5833924409047482884105307
0.6378620934146725929281274 0.03543004876948096376620967 0.592055524286967949088023
0.6400360375438765014877163 0.03399283343110581778745427 0.5740107498533412178076674
0.6400541586655177361819824 -0.001942258050035028079174926 0.5580035832844469911862006
0.6320324542594293326658317 0.01538390871440412088766436 0.5660071665688939379634803
0.6400541586655177361819824 0.03271007547884327570919538 0.5580035832844469911862006
0.62329214218415351922431 0.002096715436147621788171014 0.5753888576203011195886461
0.6225735345149658872543341 -0.0006595000977724964092568927 0.5767669653872611323919273
0.984541383074095222127653 0.01455831547592852277805964 0.5810711079972021853023989
0.9922706915370476110638265 0.03243303188335713155288076 0.5889542906055474924542636
0.9922706915370476110638265 -0.003316400931500086864123222 0.5889542906055476034765661
0.9768120746111429442137819 -0.03454138307409527347546785 0.5733417995342500184108303
0.9768120746111429442137819 0.03454138307409528041436175 0.5733417995342497963662254
0.9690827661481905552776084 -0.01666666666666666296592325 0.5654586169259046002366631
0.9613534576852382773637373 -0.02970918411104750758711113 0.5577293084629522113004896
0.9613534576852382773637373 0.003624149222285826150991017 0.5577293084629522113004896
1.02530322000137008586762 0.0003354249353481489966284645 0.5750322049339779972854103
1.025403178702195994276281 -0.0001355075336961619595667339 0.5752676711685003052565435
1.017626275018405745953487 -0.0154182998338843416791244 0.583668758268681586720561
1.009749412633789589222033 -0.03242039143589917071786033 0.5918343791343408932803527
1.009749412633789589222033 0.001583791768130490395377619 0.5918343791343407822580502
1.024948662454014725042839 -0.001044540030059043196966617 0.574813154920318813978497
1.016547575353833110511914 -0.0175756991630295553163954 0.5821600664251311840757808
1.009125229217398445058507 -0.03366875826868150067827656 0.590780203538971759869014
1.016547575353833332556519 0.01757569916302954143860759 0.5821600664251310730534783
1.009125229217398445058507 0.03366875826868149373938266 0.590780203538971759869014
1.024948662454014725042839 0.001044540030059023030806209 0.574813154920318813978497
1.024848703753188594589574 -0.000573607561014732349191636 0.5745776886857966170296663
1.024494146205833233764793 0.0001355075336961415223557825 0.5743586386721373227004506
1.016093059105651841278473 0.01455831547592851583916573 0.5817055501769496927977343
1.008046529552825809616934 0.03179858970360990855219541 0.5892715116954212462019314
1.008046529552825809616934 -0.002681958751752871669693512 0.5892715116954213572242338
0.6227037251558852348765072 -0.02275552981293765819614805 0.6454592549688229485838065
0.6181629801247081612558532 0.001496313458041566681402945 0.6409185099376459859854549
0.6227037251558852348765072 0.02574815672902078592110264 0.6454592549688229485838065
0.6364248780762975510327806 -0.03543004876948094988842186 0.6218549268457786993735681
0.6263956718769555509496172 -0.02634855870712683734158333 0.6339808484812682332076861
0.6281921863240501613390165 -0.04091850993764587635093122 0.6433625395326753038105494
0.6263956718769554399273147 0.02634855870712685468881809 0.6339808484812682332076861
0.6281921863240500503167141 0.04091850993764588328982512 0.6433625395326753038105494
0.6364248780762975510327806 0.03543004876948097070510357 0.6218549268457784773289632
0.6364248780762975510327806 -0.006290146308442835440533081 0.6072849756152596256697507
0.6291399024610380141808719 0.01247323579437146015558291 0.6145699512305191625216594
0.6364248780762975510327806 0.03123661789718575748642237 0.6072849756152596256697507
0.6191106962616960140977085 0.007585176604312564296872523 0.6266958728660086963557774
0.6163664656776135508664538 -0.002096715436147620487128407 0.6315368188862386933379867
1.027014708076943616532617 0.002593055423473932929318009 0.6255783473465301725013887
1.027952145606077172246273 -0.0007181803652068198757021933 0.6272339652408704946395801
1.021852777513614363158467 -0.01148055581971861582868399 0.6359263887568072926015361
1.01481597189201822040161 -0.03074027790985921215760612 0.6429631943784036574029983
1.01481597189201822040161 0.007779166270421964020365113 0.6429631943784036574029983
1.020611172898327145830422 -0.0199779024553474147951615 0.6198929925331204682237285
1.011605495269648047340638 -0.03405151369854017562310844 0.6102631314880502255704187
1.014511804805864336742616 -0.03592638875680724541705757 0.628585416049057155163382
1.014511804805864336742616 0.03592638875680726623373928 0.628585416049057155163382
1.01894646797739807375649 0.01997790245534743908129016 0.6176041041958001409639678
1.012542932798781603054294 0.03592638875680726623373928 0.61191874938239054770861
1.018009030448264518042834 -0.01666666666666666296592325 0.6159484863014599298480789
1.009940790348718975266706 -0.03136678613534416015795614 0.607974243150729898310658
1.009940790348719197311311 0.001966547197989177049592957 0.607974243150729898310658
0.6360681304500714894345492 -0.006718243459914211360151093 0.6927863739099856532632771
0.6288545043600572981290497 0.0121878376933905047119211 0.6855727478199713509354751
0.6360681304500714894345492 0.03109391884669521211037591 0.6927863739099856532632771
0.6227037251558851238542047 -0.04091850993764588328982512 0.6636222350935310210218177
0.6208358611835453899630011 -0.02649125775761725434809257 0.6730752756701834371710902
0.6307223683323969209979509 -0.03557274781997137036437806 0.6852011973056729710052082
0.6208358611835453899630011 0.02649125775761727863422124 0.6730752756701834371710902
0.6307223683323970320202534 0.03557274781997139118105977 0.6852011973056730820275106
0.6227037251558851238542047 0.04091850993764589022871903 0.6636222350935310210218177
0.6227037251558852348765072 -0.02275552981293765125725415 0.6545407450311770958251145
0.6181629801247081612558532 0.00149631345804157123505207 0.6590814900623541694457685
0.6227037251558852348765072 0.02574815672902078592110264 0.6545407450311770958251145
0.6162951161523684273646495 0.002239414486638061346085449 0.6685345306390064745727386
0.6189679972112057670940999 -0.007585176604312534806573431 0.6734468261844817060790547
1.02855017650996982681022 0.001914242172991369519974292 0.6733640656630215381994731
1.028210769884728481571301 -0.002593055423474021833896153 0.675617714461254181834704
1.020495151012649648336605 -0.01283818232068347116314744 0.6852475755063245355103163
1.013118938765812160340829 -0.03141909116034150711849193 0.6926237877531622455506977
1.013118938765812160340829 0.005742726518974569996367485 0.6926237877531622455506977
1.02083455763789077153092 -0.0211739642631320612586876 0.6682415022144165828166251
1.014137158641535751968377 -0.03592638875680735643936003 0.658951047794587574379932
1.013118938765811938296224 -0.03524757550632471453377903 0.6778713632594870475145399
1.013118938765811716251619 0.03524757550632470759488513 0.677871363259486825469935
1.021513370888373462008758 0.0211739642631320543197937 0.6663272600414252844203133
1.013797752016294406729457 0.03524757550632470759488513 0.6612046965928202180151629
1.021852777513614807247677 -0.01666666666666666990481716 0.6640736112431926407850824
1.014815971892018442446215 -0.02555416706291128298156323 0.6570368056215962759836202
1.01481597189201822040161 0.007779166270422053358624126 0.6570368056215962759836202
0.6400323517102397552491766 -0.001971979380013652062564322 0.7420043310902533217898736
0.632009679219739717304094 0.01537001613382638770533006 0.7340086621805067546020496
0.6400323517102395332045717 0.03271201164766643354475661 0.7420043310902533217898736
0.6361492342487836681996782 -0.03557274781997150914225614 0.7217219820687549303173114
0.6297176509785017417542008 -0.01958141000047822558038924 0.7303929798256750816065619
0.6385223662887340445593054 -0.03400866218050671574424371 0.7398460204023274977558344
0.6297176509785016307318983 0.01958141000047820823315448 0.7303929798256750816065619
0.6385223662887339335370029 0.0340086621805067088053498 0.7398460204023274977558344
0.6361492342487836681996782 0.03557274781997150914225614 0.7217219820687550413396139
0.6360681304500714894345492 -0.006718243459914350138029171 0.7072136260900141468965785
0.6288545043600570760844448 0.01218783769339048042579243 0.7144272521800285602466829
0.6360681304500714894345492 0.03109391884669533007157227 0.7072136260900141468965785
0.6224229210897751496389674 0.0006753288471733590210555054 0.7230982499369484894913285
0.6232049639095074144989894 -0.002239414486638187980899195 0.724555621603854338452777
0.9930710925601513583416136 0.008426555360909918773737459 0.7153554628007583460203023
0.986142185120302938727832 -0.01666666666666665602702935 0.7222843702406064325671764
0.9930710925601513583416136 -0.0249067779724234175664499 0.7153554628007583460203023
0.9719196470027885448317306 -0.01177840956836202768176491 0.736142185120302938727832
0.9646260163251225705494107 -0.03125392802199850050826058 0.7430710925601513583416136
0.9646260163251226815717132 0.007697108885274434736389892 0.7430710925601515803862185
0.9792132776804547411586555 -0.03614218512030312885352501 0.7153554628007580129533949
0.9649907395629402362402516 -0.03614218512030312191463111 0.7292132776804545191140505
0.9649907395629402362402516 0.03614218512030313579241891 0.7292132776804545191140505
0.9792132776804545191140505 0.03614218512030314273131282 0.7153554628007579019310924
1.027147206472288409884186 0.0004659285985932932615434521 0.723318722126304214370407
1.026423049685089017302175 -0.001914242172992146025570226 0.7245088075120970083631278
1.024061502705107429278542 -0.002808851786970820336997168 0.7268703544920784853644591
1.022424112512325455881523 0.0004659285985932882742134586 0.7280418160862673904176745
1.018322680651052358768993 -0.01904683743825209482625205 0.7164084384780602388076431
1.011670625191414041310622 -0.03524757550632549168989627 0.7078421408454304009083558
1.015495205072477702401557 -0.01994144705223076935451942 0.7211129086464187487592881
1.009032226231223017265393 -0.03379926193192660244246639 0.7118410780181931851728905
1.015961133671070770745359 0.01994144705223079017120114 0.718769985458041604786672
1.00739483603844082182377 0.0361421851203041766265045 0.7130125396123816461368961
1.019770994225450699843805 0.01904683743825211564293376 0.7159425098794669484192355
1.010946468404214648728612 0.0337992619319266163202542 0.7090322262312228618341692
1.02049515101265031447042 -0.01666666666666665602702935 0.7147524244936743764711196
1.013118938765812382385434 -0.02759060681435796663629745 0.7073762122468372215422505
1.013118938765812382385434 0.005742726518975367969166435 0.7073762122468371105199481
1.006928907439847753479967 0.008426555360910952668929141 0.7153554628007587901095121
1.013857814879695506959933 -0.01104896309272654537914082 0.7222843702406074317678986
1.006928907439847753479967 -0.0305244815463640573049986 0.7153554628007589011318146
0.642188346429793943670461 0.003420244193366996261762569 0.7612318977635729178032875
0.6343766928595879761587639 -0.0166666666666666594964763 0.7688984685264774743274074
0.642188346429793943670461 -0.02991308913996634094578653 0.7612318977635729178032875
0.6259203637520758256584941 -0.0002459915483579334797084592 0.7761663553004336524310247
0.6252756882147694206253163 0.001043359526254721870996978 0.7757676713114852740105221
0.6329233055566653165513458 -0.01827679073967162712288648 0.7669049641564189556675046
0.641540021163373830326293 -0.03437669285958803999658784 0.7600434554300168343843325
0.6251153017155732793952438 -0.001856115621362902298741027 0.7753612932639312171900769
0.6251153017155731683729414 0.001856115621362936125848808 0.7753612932639312171900769
0.6329233055566654275736482 0.01827679073967164793956819 0.7669049641564189556675046
0.6415400211633737193039906 0.03437669285958804693548174 0.7600434554300168343843325
0.6400866338604511707188749 -0.001863415079590531641187678 0.7580499510599582047021272
0.632118243520162881310398 0.01537001613382640852201177 0.7660999021199164094042544
0.6400866338604511707188749 0.03260344734724333892739168 0.7580499510599582047021272
0.6243102396790707331319936 0.000245991548357967415236458 0.7745562312274287819491292
0.6244706261782668743620661 -0.000566764546750246622774938 0.7749626092749828387695743
0.6886764393916471327372619 -0.003608330437291784684866736 0.7922847698289389173353925
0.6809110649524151570588515 0.01429454255391935518781921 0.7845695396578779012841665
0.6886764393916471327372619 0.03219741554513047554486604 0.792284769828939028357695
0.673195834781354029985323 -0.03456953965787779026186399 0.776806545495828282277273
0.673195834781354029985323 0.0345695396578778041396518 0.7768065454958283932995755
0.6577152301710610382556865 0.00361309099165675693537958 0.7613283211627177582414561
0.665430460342122165329215 -0.01428978199955436081958204 0.769091315324767266226047
0.6577152301710609272333841 -0.03219265499076549852386364 0.7613283211627177582414561
0.9423212406235665916653943 0.003555892003195265833881411 0.7612346513796285352171367
0.9346424812471332277397096 -0.01666666666666663867979459 0.7690991866251641884133505
0.9423212406235665916653943 -0.02977744133013807137366769 0.7612346513796285352171367
0.9192628134473457279796094 -0.01409266893290840941266318 0.7846424812471333165575516
0.9115619050239915921451939 -0.03206848351337515667935918 0.7923212406235666804832363
0.9115619050239913701005889 0.003883145647558320506798069 0.7923212406235666804832363
0.9269637218706999748363273 -0.03464248124713338594649059 0.7614204272487310465322707
0.9115840540709123640539246 -0.03464248124713338594649059 0.7769637218707000636541693
0.9115840540709125860985296 0.03464248124713342064096011 0.7769637218707001746764718
0.9269637218706999748363273 0.03464248124713342064096011 0.7614204272487309355099683
0.9763019485205504111036134 0.0001541079907424690829953473 0.7738521594701920358616576
0.9757665552533320019179541 -0.001224894525179238014694905 0.7745416607281528920125879
0.9748850772157529043226987 -0.0005380615499790011944242218 0.7754231387657322116524483
0.9745389924453922159131025 0.0001541079907424695166762163 0.775615115545350342074471
0.967686470210903371125255 -0.01804566918258835792054917 0.7664615756857244832644938
0.9617202114313512240073578 -0.03455822785851257739064835 0.7580511883570197895210185
0.9664746898870483216015259 -0.0173588362073881230518424 0.7681361234817251082418466
0.9587406896149804902407254 -0.03348744132407577289711753 0.7598640616596782360048223
0.9668049921733242735299996 0.01735883620738815427686497 0.7673430537233034698374468
0.9583946048446196908088268 0.03387139488331236680807024 0.7600560384392964774491475
0.9698002964737797437777544 0.01804566918258838914557174 0.7661312733994483092914152
0.9611848181641328148216985 0.03348744132407579371379924 0.7587406896149806456719489
0.9703356897409981529634138 -0.01666666666666664908813544 0.7654417721414873421181824
0.9638340376942273746152523 -0.02722018170984943918888632 0.75772088607074361554794
0.9638340376942275966598572 0.00611315162348389541657756 0.75772088607074361554794
0.9580643025583436278580507 0.002784805639374208531544586 0.7608491081977180048312448
0.9661286051166875221696273 -0.01441992257727147536128243 0.7683281002613432386638692
0.9580643025583436278580507 -0.03162465079391716532564161 0.7608491081977180048312448
0.6919480658107386439326092 0.001860120131137531218623593 0.8099120543203988109581815
0.6838961316214772212518369 -0.01666666666666667684371106 0.8178781258763071493333996
0.6919480658107386439326092 -0.03147321320219580165211681 0.8099120543203988109581815
0.6754408583182076597495325 -0.0002438799398725720367700487 0.8256847382580799754592249
0.6750375192041994099056978 0.0005627982881438037265908747 0.8255252790839443521875296
0.6819118431418675907451643 -0.01826311951313858844558879 0.8164312385315743991753834
0.6907620037543649171851712 -0.03389613162147715741401299 0.8092633933989019645593999
0.6746426318949716449679954 -0.001840332786344479627099746 0.8248865118348440716999903
0.6746426318949716449679954 0.00184033278634444558315153 0.8248865118348440716999903
0.6819118431418675907451643 0.01826311951313856415946013 0.8164312385315746212199883
0.6907620037543649171851712 0.03389613162147715047511909 0.8092633933989020755817023
0.688777715274755397700801 -0.00340577867107542649541263 0.8078165060541692144013837
0.6811136167186316869859297 0.01429454255391932222807316 0.8156330121083384954161488
0.688777715274755397700801 0.0319948637789140843956659 0.8078165060541693254236861
0.6738444054717357412087608 0.0002438799398725378844016154 0.8240882854116080569184533
0.6742392927809635061464633 -0.00103365455832810397215904 0.8247270526607085594505975
0.7428110856676168882728462 0.006866514005702703711542245 0.8140554283380856404050974
0.7356221713352339985902972 -0.01666666666666668378260496 0.8212443426704681970207389
0.7428110856676168882728462 -0.02646681932763062655711295 0.8140554283380854183604924
0.7269502986556697354814105 -0.0006770786924619031504901656 0.8276273773481312989730441