# geometry NO_DATA 596
#  x  y  z
0.6430267861133509565974009 0.008160716680106162509988899 0.36513393056675502723607
0.6360535722267021130349463 -0.0166666666666666594964763 0.3721071444534041483542808
0.6430267861133509565974009 -0.02517261665322716862602803 0.36513393056675502723607
0.6221071444534043148877345 -0.01122618887992897843131068 0.3860535722267022240572487
0.6151339305667553603029774 -0.03061309443996447846036979 0.3930267861133510676197034
0.6151339305667554713252798 0.008160716680106507719960618 0.3930267861133511786420058
0.6290803583400532694724916 -0.03605357222670216299498236 0.3651339305667552492806749
0.6151339305667554713252798 -0.03605357222670215605608846 0.3790803583400532694724916
0.6151339305667554713252798 0.03605357222670216299498236 0.3790803583400533249836428
0.6290803583400532694724916 0.03605357222670216299498236 0.3651339305667553603029774
0.6920122517375650872395454 0.002073510425389913161553501 0.3600612586878249032906751
0.6840245034751299968434068 -0.01666666666666664908813544 0.3680490069502598826645112
0.6920122517375650872395454 -0.03125982290794342144391038 0.3600612586878249032906751
0.6743310506951122329510895 -0.002720238893368542160144941 0.377051289588480831316275
0.6726253461775295594549107 0.0006911701417966492492009345 0.3780658239642668005942028
0.6760367552126950174695708 -0.03402450347512995382226464 0.3600612586878249032906751
0.6656521322908806048701535 -0.02007807570183184689427414 0.3710926100776178460094457
0.6593700885460282989924963 -0.03402450347512995382226464 0.3620903274393968418465306
0.6663433024326771425549509 0.02007807570183187464984975 0.3690635413260459074535902
0.657664384028445514474015 0.03605357222670189931701401 0.3631048618151829221467608
0.6760367552126949064472683 0.03402450347512997463894635 0.3600612586878249032906751
0.6569732138866488657669152 0.008160716680105900566744026 0.3651339305667549162137675
0.6639464277732979313739747 -0.0112261888799293236412824 0.3721071444534038707985246
0.6569732138866488657669152 -0.03061309443996455131875578 0.3651339305667549162137675
0.7418667331196502345846966 0.001200398717901061170637567 0.3593336655982509175721873
0.7337334662393004691693932 -0.01666666666666664214924154 0.3674669324786007384986419
0.7418667331196502345846966 -0.03213293461543226953169849 0.3593336655982509175721873
0.7250545478350687300661548 -0.0006911701417966229030881431 0.3757457179768654009777151
0.7245088963111868674005223 0.0004001329059670613369145697 0.3758912365947802425303337
0.7256001993589507037540898 -0.03373346623930034704486047 0.3593336655982509175721873
0.7165211480487521100712911 -0.01775796971443032584714317 0.3679034883323452076453464
0.7089335326922840962993178 -0.03373346623930034704486047 0.3596247028340805451662732
0.7169212809547189646508514 0.01775796971443037441940049 0.3676124510965155245401093
0.7083878811684021226113828 0.03402450347513000239452197 0.3597702214519953312077405
0.7256001993589507037540898 0.03373346623930038173932999 0.3593336655982508620610361
0.7079877482624350459872176 0.002073510425389936580320427 0.3600612586878249588018264
0.7159754965248701363833561 -0.01528432638307337422534093 0.3680490069502599936868137
0.7079877482624352680318225 -0.03264216319153670498032227 0.3600612586878249588018264
0.7918421543325404599045214 0.00105292599524174027708634 0.3592107716627015445709503
0.7836843086650806533555169 -0.0166666666666666594964763 0.3673686173301611845865011
0.7918421543325404599045214 -0.0322804073380915865221219 0.3592107716627014335486479
0.7751509088787638113160483 -0.000400132905966985117501844 0.3755510417847308102246018
0.7747753547599067758255842 0.0003509753317472538063429011 0.3755756205718406848248492
0.7755264629976209578288149 -0.03368430866508057008879007 0.3592107716627014335486479
0.7666420878795567883656759 -0.01741777490438089701085822 0.3674423536914908638983945
0.7588597963309542393517404 -0.03368430866508057008879007 0.3592599292369212382602939
0.7669930632113041157893463 0.01741777490438091435809298 0.3673931961172710591867485
0.7584842422120972038612763 0.03373346623930033316707267 0.3592845080240311128605413
0.7755264629976209578288149 0.03368430866508057702768397 0.3592107716627015445709503
0.7581332668803498764376059 0.001200398717901016935188929 0.3593336655982509175721873
0.7662665337606997528752117 -0.01586640085473264155657702 0.3674669324786007384986419
0.7581332668803498764376059 -0.03293320042736630481883253 0.3593336655982509175721873
0.8418623184890736688146262 0.001173910934441349616236261 0.3593115924453678111660793
0.8337246369781472488114105 -0.0166666666666666594964763 0.367449273956294231169295
0.8418623184890736688146262 -0.03215942239889198195346154 0.3593115924453678111660793
0.8252158159789404479056429 -0.0003509753317472370554193362 0.375566791310687486671327
0.8248446764906598449584862 0.0003913036448137865845088579 0.3755466271541541556366894
0.8255869554672208288081947 -0.03372463697814710725797482 0.3593115924453678111660793
0.8166868308232002604540867 -0.01740894564322768497954819 0.3673887814866945156211386
0.8089202888005542213534227 -0.03372463697814710725797482 0.3592712641323013156302579
0.8170781344680138058578223 0.01740894564322769191844209 0.3674291097997609556458087
0.808549149312273618406266 0.03368430866508057008879007 0.3592510999757680956179229
0.8255869554672208288081947 0.03372463697814712113576263 0.3593115924453678111660793
0.8081578456674598509579255 0.001052925995241739409724602 0.3592107716627014335486479
0.81631569133491965750693 -0.01596471600317216771314222 0.3673686173301611845865011
0.8081578456674598509579255 -0.03298235800158607483600903 0.3592107716627014335486479
0.8919868795248515613849349 0.001921277149109683682337568 0.3599343976242580511737401
0.8839737590497032115877118 -0.0166666666666666664353702 0.3679475180994064009709632
0.8919868795248515613849349 -0.03141205618422365786202022 0.3599343976242579956625889
0.8754447738939630241361556 -0.0003913036448137782903622384 0.3758360775387767915844961
0.8749289092133711864818224 0.0006404257163698963677828102 0.3757115165029987213785034
0.8759606385745547507681863 -0.03397375904970322685327844 0.3599343976242579956625889
0.8667912277024447664786067 -0.0176983960278503382745896 0.3675738349920723013752877
0.8592939719078881433134143 -0.03397375904970321991438453 0.3596852755527019107617548
0.86743165341881456331663 0.01769839602785034521348351 0.3678229570636283307649705
0.8587781072272964166813836 0.03372463697814712113576263 0.3595607145169238405557621
0.8759606385745547507681863 0.03397375904970323379217234 0.3599343976242580511737401
0.8581376815109265088210577 0.001173910934441348532034088 0.3593115924453678111660793
0.8662753630218529288242735 -0.01588405937703910031366661 0.367449273956294231169295
0.8581376815109265088210577 -0.03294202968851954460571818 0.3593115924453677001437768
0.9428157177560239077251936 0.00689430653614451442040556 0.3640785887801203934976968
0.9356314355120478598593081 -0.01666666666666666990481716 0.3712628710240962748301286
0.9428157177560239077251936 -0.02643902679718881931769658 0.3640785887801203934976968
0.9269778893205297132240617 -0.0006404257163699028729958451 0.3776183150368997432089202
0.9255086253729871703654908 0.002298102178714827876354621 0.3767894768057272747441289
0.9284471532680722560826325 -0.03563143551204817072175501 0.3640785887801203934976968
0.9174955048978389315905702 -0.01960519456175140520781675 0.3687763563305789249469058
0.9117804866014053155609531 -0.03563143551204817766064892 0.3624209123177754010569629
0.9197936070765537763804787 0.01960519456175139479947589 0.3704340327929238618764884
0.9103112226538631057692896 0.03397375904970322685327844 0.361592074086603043614474
0.9284471532680720340380276 0.03563143551204817072175501 0.3640785887801203934976968
0.9080131204751481499570787 0.001921277149109677177124533 0.3599343976242580511737401
0.9160262409502966107766042 -0.015385815233926888878635 0.3679475180994064009709632
0.9080131204751481499570787 -0.03269290761696344582709628 0.3599343976242579956625889
0.9859214112198795287866915 -0.00689430653614451008359687 0.392815717756023974338575
0.9787371289759035919431085 0.01207046230923700114168184 0.3856314355120480930061433
0.9859214112198795287866915 0.0310352311546185019586197 0.392815717756023974338575
0.9715528467319276550995255 -0.03563143551204817072175501 0.3784471532680722116737115
0.9715528467319276550995255 0.03563143551204817766064892 0.3784471532680721006514091
0.9571842822439756703900571 0.006894306536144521359299464 0.3640785887801203379865456
0.9643685644879516072336401 -0.01207046230923698205972361 0.3712628710240962193189773
0.9571842822439757814123595 -0.0310352311546184880808319 0.3640785887801203379865456
0.5923798447599311067790495 0.004279068559586800962746267 0.411899223799655600508629
0.5847596895198621247402571 -0.01666666666666666990481716 0.4195193790397245270362703
0.5923798447599311067790495 -0.02905426477374652843854719 0.411899223799655600508629
0.5695193790397244937295795 -0.01381395429360871354718121 0.434759689519862213558099
0.5618992237996556227130895 -0.03190697714680434948775201 0.4423798447599310290634378
0.5618992237996556227130895 0.004279068559586931067006965 0.4423798447599310290634378
0.5771395342797935867906745 -0.034759689519862302375941 0.411899223799655822553234
0.5618992237996558447576945 -0.0347596895198623093148349 0.4271395342797935090750627
0.5618992237996558447576945 0.034759689519862302375941 0.4271395342797935090750627
0.5771395342797935867906745 0.0347596895198623093148349 0.411899223799655822553234
0.6279150609870517429911274 0.0003896441873668128998489668 0.4224745832003149459410452
0.626749763634050882643578 -0.002720238893368421163182491 0.4240295247406825618341486
0.6246764660941022118123556 -0.001426356186528675035890545 0.4261028222806311216430686
0.623768465907154512350985 0.0003896441873668146345724428 0.4266211782802120655588851
0.6186112523944010677112715 -0.01977654974740190169102405 0.4158910135010327469018421
0.6128033358607530844963662 -0.03605357222670174666134812 0.407362858074016065401679
0.6161483106670855303121925 -0.01848266704056215209428515 0.4190010230401433055646976
0.608917799614383525863559 -0.03372297752070013698855178 0.4103441558009125467165745
0.6165379548544525079023515 0.01848266704056215209428515 0.4179643110409812511996108
0.608009799427435715379886 0.03475968951986200400350313 0.4108625118004934906323911
0.6209418471004030104509752 0.01977654974740189475213015 0.4155013693136658803339856
0.6116380385077523351711193 0.03372297752070013698855178 0.4089177996143836257836313
0.6221071444534037597762222 -0.0166666666666666664353702 0.4139464277732982644408821
0.6151339305667551382583724 -0.02517261665322723454552012 0.4069732138866490878115201
0.6151339305667551382583724 0.008160716680106096590496811 0.4069732138866491433226713
0.6076201552400688488120295 0.004279068559586500855584923 0.4118992237996554894863266
0.615240310480137830850822 -0.013813954293608836712548 0.4195193790397242494805141
0.6076201552400688488120295 -0.03190697714680417601540441 0.4118992237996555449974778
0.9923344558080700039681687 0.004006734848420513174505064 0.4116722790403503084988301
0.98466891161614011895864 -0.01666666666666666990481716 0.4193378232322802490195102
0.9923344558080700039681687 -0.02932659848491282750249098 0.4116722790403503084988301
0.9761492501522526232804466 -0.000372656261108377233771255 0.4265219064133609627731403
0.9752951328802949015894797 0.001335578282806839170437918 0.4260404454025117360060904
0.9805539692066643775447687 -0.0203003471281883451915462 0.4161854047187125704709842
0.9900363536293551591782602 -0.03466891161614017724534875 0.4103367007575434710631157
0.9743324099214918376787864 -0.004006336722630052249449761 0.4247050661826000661491776
0.9743324099214918376787864 0.004006336722630057453620189 0.4247050661826000661491776
0.9805539692066643775447687 0.0203003471281883451915462 0.4161854047187125704709842
0.9900363536293551591782602 0.03466891161614017724534875 0.4103367007575434710631157
0.9859214112198795287866915 -0.006894306536144513553043822 0.4071842822439757925145898
0.9787371289759035919431085 0.01207046230923699593751142 0.4143685644879516738470215
0.9859214112198795287866915 0.0310352311546185019586197 0.4071842822439757925145898
0.9725155696907308300325212 0.0003726562611083824379416829 0.4228882259518392250363661
0.9734782926495341159878194 -0.002298102178714835248929393 0.4242236051717508393821277
1.038339767833183380218998 -0.003994687974886651678219085 0.442334455808070015070399
1.030668200204486240068036 0.01400755697458684959078035 0.434668911616140074549719
1.038339767833183380218998 0.0320098019240603604007589 0.442334455808070015070399
1.023002656012556688125414 -0.03466891161614017030645485 0.4270033674242101895401902
1.02300265601255646608081 0.03466891161614017030645485 0.4270033674242101895401902
1.007665544191929773987226 0.004006734848420509705058112 0.4116722790403503084988301
1.015331088383859547974453 -0.01399551010105299676811175 0.4193378232322802490195102
1.007665544191929773987226 -0.03199775505052650237391987 0.4116722790403503084988301
0.5429449777109108810080329 0.007669866265466370250369899 0.4647248885545551821962817
0.5358899554218219396517497 -0.01666666666666666296592325 0.4717799108436442345748674
0.5429449777109108810080329 -0.02566346706786695741620008 0.4647248885545551821962817
0.5217799108436441679614859 -0.01155342248968926899266307 0.4858899554218221172874337
0.5147248885545551155829003 -0.03077671124484480241756401 0.4929449777109110031325656
0.5147248885545551155829003 0.007669866265466264432237864 0.4929449777109110031325656
0.528834933132733331362374 -0.03588995542182219639082419 0.4647248885545554597520379
0.5147248885545554486498077 -0.03588995542182220332971809 0.4788349331327333979757555
0.5147248885545554486498077 0.03588995542182220332971809 0.4788349331327333979757555
0.528834933132733331362374 0.03588995542182219639082419 0.4647248885545554597520379
0.5766193681007951710171255 0.0003860238285330958507221566 0.4737666557277377954449094
0.5760992019217973103550889 -0.001426356186528666795954035 0.4746728457352686891823623
0.5741077127842888483399975 -0.002556622088488241621717645 0.4766643348727771511974538
0.5726363898257782469869426 0.0003860238285330960675625911 0.4777496340027547194750923
0.5679588805027306896988648 -0.01847904668172842268525358 0.4665325243162019575038357
0.5608588914416597903667139 -0.03475968951986200400350313 0.4580061790686020817275903
0.565581367536688972563752 -0.01960931258368799751101719 0.4706946117136660001634141
0.5589123690761328422382803 -0.03371935716186642145730801 0.4614689911646217557184002
0.5659673913652222276837733 0.01960931258368800791935804 0.4685240134537104195189272
0.5574410461176222408852254 0.03588995542182157882926674 0.4625542902945992684848875
0.568999212860726411022938 0.01847904668172842962414748 0.4661465004876688134061169
0.5603387252626619297046773 0.03371935716186642839620191 0.4589123690761329754650433
0.5695193790397242716849746 -0.0166666666666666594964763 0.4652403104801379196686639
0.5618992237996556227130895 -0.02905426477374669497200088 0.457620155240068826607569
0.5618992237996556227130895 0.004279068559586632694569097 0.457620155240068826607569
0.5570550222890890967875066 0.007669866265465755290897665 0.4647248885545548491293744
0.5641100445781783712106972 -0.01155342248968915450091366 0.4717799108436436239522038
0.5570550222890890967875066 -0.0307767112448440738337041 0.4647248885545548491293744
1.042388081122767262698403 0.004367964866205362867157547 0.4619798837434379579214294
1.03477616224553470303249 -0.01666666666666666296592325 0.4695720635558698896616647
1.042388081122767262698403 -0.02896536846712797000358286 0.4619798837434379579214294
1.026275408159381452577463 -0.0003348415056396910347361051 0.4766102496650211350903703
1.025386572950460983832954 0.001442828912201302941215042 0.4760562559617403377565381
1.032069464891581800358722 -0.0194209516824924155464771 0.4667323530709550638562177
1.041058526276727125292609 -0.0347761622455346267046572 0.4605173157664359528951081
1.024898265651468687309489 -0.003089126521465442205827134 0.4752331071571082032889421
1.024898265651468687309489 0.003089126521465444807912348 0.4752331071571082032889421
1.032069464891581800358722 0.01942095168249242248537101 0.4667323530709550638562177
1.041058526276727125292609 0.03477616224553464058244501 0.4605173157664359528951081
1.038351828922774666708051 -0.003970565795704261713439109 0.4576776052815210715785099
1.030692322383668813046143 0.0140075569745868530602273 0.4653552105630421875659408
1.038351828922774666708051 0.03198567974487796783389371 0.4576776052815210715785099
1.023521123143555699996909 0.000334841505639693799451645 0.4738559646491953825098165
1.02400943044254821856498 -0.001311456103624448338296204 0.47467911345382740595511
1.087993825928386781853874 -0.004407408885935934668431901 0.4924012348143226303065489
1.08039506074270930113812 0.01372839407604271519391936 0.4848024696286453161242491
1.087993825928386781853874 0.03186419703802136071946194 0.4924012348143226303065489
1.072796295557032042466972 -0.03480246962864531196091278 0.477197136124657972366947
1.072796295557032042466972 0.03480246962864531889980668 0.477197136124657972366947
1.05759876518567730308007 0.004394272249316042051880959 0.461993037434993314427345
1.065197530371354783795823 -0.01374153071266260434102335 0.4695983709389806581846472
1.05759876518567730308007 -0.03187733367464124639711898 0.461993037434993314427345
0.5278932284466207880413435 0.0006732127162647266391259926 0.5227799842696438936684444
0.5269515237605089108541279 -0.002556622088488411624618291 0.5243949016720205191788295
0.5180130920991961041011109 -0.01532024123413719060571303 0.5340065460495979632327135
0.5100163651239951745353096 -0.03266012061706858454757096 0.5420032730247988927985148
0.5100163651239952855576121 0.002019638148794205504549248 0.5420032730247990038208172
0.518954796785308092310629 -0.01989650147141980990328491 0.5163981746968195896130283
0.5128414791823310281415615 -0.03588995542182174536272043 0.5077282350053538007017551
0.5100163651239952855576121 -0.03400654604959806037722814 0.5260098190743970336669122
0.5100163651239952855576121 0.03400654604959806731612204 0.5260098190743971446892147
0.5208382061575319577073628 0.01989650147141980643383796 0.5157249619805548412898588
0.5118997744962191509543459 0.03400654604959806731612204 0.5093431524077305372344426
0.521779910843643723872276 -0.01666666666666666990481716 0.5141100445781782157794737
0.5147248885545548935382953 -0.02566346706786752987494715 0.5070550222890890523785856
0.5147248885545548935382953 0.007669866265465808199963682 0.5070550222890890523785856
1.09283144417274491466685 0.006988665036469399356733323 0.514157220863724506720871
1.085662888345489740515859 -0.01666666666666666990481716 0.52132577669097956984956
1.09283144417274491466685 -0.02634466829686393785081577 0.5141572208637243956985685
1.077137357171763287766453 -0.0003843956807868462166588586 0.5275217528525499854907821
1.075780381825291565078828 0.00232955501215646254911662 0.5265491731868651159587102
1.082294406396443697815357 -0.02046535797413511631459571 0.5170968760250889140195341
1.091362307877433046598981 -0.03566288834548980712924049 0.511827665851568025523477
1.075238011518028891089216 -0.004183086988255292626437409 0.5256224071988155888135452
1.075238011518028891089216 0.004183086988255285687543505 0.5256224071988156998358477
1.082294406396443697815357 0.02046535797413511284514875 0.5170968760250889140195341
1.091362307877433046598981 0.03566288834548980712924049 0.511827665851568025523477
1.087993825928386781853874 -0.004407408885935939005240591 0.5075987651856772586711486
1.08039506074270930113812 0.01372839407604270825502546 0.5151975303713546283645996
1.087993825928387003898479 0.03186419703802136071946194 0.5075987651856773696934511
1.073338665864294938501189 0.0003843956807868392777649547 0.5237230615450815252032157
1.073881036171557390446196 -0.001469136295311983426981062 0.5246498275331308303037758
1.13584277913627551548359 -0.006988665036469396754648109 0.5428314441727448702579295
1.128674223309020341332598 0.01200755664235373179615785 0.535662888345489696106938
1.13584277913627551548359 0.03100377832117687249002813 0.5428314441727448702579295
1.121505667481765389226211 -0.03566288834548980019034659 0.528494332518234632978249
1.121505667481765389226211 0.03566288834548980712924049 0.528494332518234632978249
1.107168555827255040924229 0.006988665036469400224095061 0.5141572208637243956985685
1.11433711165451021507522 -0.01200755664235373700032827 0.52132577669097956984956
1.107168555827255040924229 -0.03100377832117687249002813 0.5141572208637243956985685
0.5258713844977143114789442 0.0003963435628994703722668969 0.5745249590651849702638287
0.5257329499210318113355811 -0.0006732127162646722121769338 0.5750597372047669963990302
0.5174593537924656594384487 -0.01587397954086771853510207 0.5837296768962327853103034
0.5093241922405820076846794 -0.03293698977043384851226548 0.5918648384481163260417702
0.5093241922405820076846794 0.001189030688698395179028755 0.5918648384481164370640727
0.5175977883691482706041143 -0.01773622294583079503360601 0.5669245756528834556675633
0.5097394959706298411816761 -0.03400654604959801180497081 0.5583930705381003889442582
0.5093241922405820076846794 -0.03372967689623278253474581 0.5755945153443491335565341
0.5093241922405820076846794 0.03372967689623279641253362 0.5755945153443491335565341
0.5178746575225134929354454 0.01773622294583082278918162 0.566528232089983929675725
0.509601061393947341038313 0.03372967689623279641253362 0.5589278486776825261017621
0.5180130920991961041011109 -0.0166666666666666525575824 0.5659934539504019035405236
0.5100163651239950635130072 -0.03131369518453916422906502 0.5579967269752008629524198
0.5100163651239950635130072 0.00201963814879417037639886 0.5579967269752008629524198
1.140119398159713748341915 -0.001856722208343958291365539 0.5919761203680573569130274
1.1320955185277710164371 0.01542885186110403046566564 0.5839522407361147360305154
1.140119398159713748341915 0.03271442593055201575324986 0.5919761203680573569130274
1.135842779136275737528194 -0.03566288834548979325145268 0.571505667481765233794988
1.129529547113708121131026 -0.01961512908160444740301998 0.5801484545164893313895504
1.138408750550338410789664 -0.03395224073611464998823095 0.5896465653559009867379359
1.129529547113708121131026 0.01961512908160446128080778 0.5801484545164893313895504
1.138408750550338410789664 0.03395224073611466386601876 0.5896465653559009867379359
1.135842779136275737528194 0.03566288834548980712924049 0.5715056674817653448172905
1.13584277913627551548359 -0.006988665036469395019924633 0.5571685558272549965153075
1.128674223309020563377203 0.01200755664235373700032827 0.5643371116545102816886015
1.13584277913627551548359 0.03100377832117687249002813 0.5571685558272549965153075
1.122360991286452946980035 0.0006189074027813266584696628 0.5729798986892343792831639
1.123216315091140504733858 -0.002329555012156461248074013 0.5744541298967031917044324
0.5255706711170782252651179 0.0003486551083578624116166012 0.6247779839912794841438881
0.5255468268898073613826227 -0.0003963435628994549223859389 0.6251504833269081462532313
0.5173639768833823149307705 -0.01596935644995092773434919 0.6336819884416912129765365
0.5092049711042279103168084 -0.03298467822497545831605947 0.6418409942208456175904985
0.5092049711042279103168084 0.001045965325073602847361087 0.6418409942208456175904985
0.5173878211106530677909632 -0.01741166533792398371516263 0.6169914775477537416392693
0.5092765037860402799196891 -0.03372967689623278253474581 0.6084838166602415387984593
0.5092049711042279103168084 -0.03368198844169119354763353 0.6255229826625368083625744
0.5092049711042279103168084 0.03368198844169119354763353 0.6255229826625368083625744
0.5174355095651945735113486 0.01741166533792397677626873 0.6166428224393958323901188
0.5092526595587695270594963 0.03368198844169119354763353 0.6088563159958702009078024
0.5174593537924654373938438 -0.01666666666666666990481716 0.6162703231037671702807756
0.5093241922405820076846794 -0.03214430264463494224536078 0.6081351615518835185270063
0.5093241922405817856400745 0.001189030688698384553847465 0.6081351615518835185270063
1.140710407696154504719743 -0.001147510764614692981358535 0.6418579184607691168196197
1.132568326156923710357205 0.01590165949025686489837206 0.6337158369215383224570814
1.140710407696154504719743 0.03295082974512843210224133 0.6418579184607691168196197
1.14011939815971352629731 -0.03395224073611464998823095 0.6240716388958280624876807
1.132213720435059078894824 -0.01766807765765288779080677 0.6325962240232638755799144
1.140474003881578157759691 -0.03371583692153823363923948 0.6412390110579877511298719
1.132213720435059078894824 0.01766807765765287391301896 0.6325962240232638755799144
1.140474003881578157759691 0.03371583692153821976145167 0.6412390110579877511298719
1.140119398159713748341915 0.03395224073611464998823095 0.6240716388958280624876807
1.140119398159713748341915 -0.001856722208343962845014663 0.608023879631942709700354
1.1320955185277710164371 0.01542885186110401832260131 0.6160477592638853305828661
1.140119398159713748341915 0.03271442593055201575324986 0.608023879631942709700354
1.124189840803116569034614 0.000382503588204886728080939 0.6245723443913211436750998
1.124308042710404631492338 -0.0006189074027813312121187872 0.6250730498868143358848215
0.5255444682546794865629636 0.0003916262926433001709258797 0.6748471580379638012914256
0.5255659538468222535811947 -0.0003486551083578780783379936 0.6752172987384643665365047
0.5174499192519532719813924 -0.01588341408138015109496877 0.6837249596259766803996172
0.509312399064941523363359 -0.03294170704069012550752049 0.6918624798129884290176506
0.509312399064941523363359 0.001174878877929834810125986 0.6918624798129884290176506
0.5174284336598106159854638 -0.01740694806766785590612656 0.6670797785514528399630763
0.5092479422885134443532706 -0.03368198844169120048652744 0.6585506320717977590817327
0.509312399064941523363359 -0.03372495962597664431736888 0.6755874394389650428038863
0.509312399064941523363359 0.03372495962597664431736888 0.6755874394389650428038863
0.5173854624755250819490016 0.01740694806766783508944485 0.6666881522588093966774636
0.5092694278806561003491993 0.03372495962597663737847498 0.6589207727722983243268118
0.5173639768833823149307705 -0.01666666666666667337426411 0.666318011558308942454687
0.5092049711042279103168084 -0.03228736800825973002337932 0.6581590057791544268184225
0.5092049711042279103168084 0.001045965325073600462116308 0.6581590057791544268184225
1.140657625682892195584373 -0.001210849180529248838092404 0.6918684748634214010110099
1.132526100546313863048908 0.0158594338796471737151883 0.6837369497268430684755458
1.140657625682892195584373 0.03292971693982359171481988 0.6918684748634214010110099
1.140710407696154504719743 -0.03371583692153821976145167 0.6744262446176925163143778
1.132557769754271248530131 -0.01745278664838130489034285 0.6829613861477807912336857
1.140678738488197119238521 -0.03373694972684307402666093 0.691485971275216493303617
1.132557769754271248530131 0.01745278664838132570702456 0.6829613861477807912336857
1.140678738488197119238521 0.03373694972684309484334264 0.691485971275216493303617
1.140710407696154504719743 0.03371583692153823363923948 0.6744262446176925163143778
1.140710407696154504719743 -0.001147510764614683657219851 0.6581420815392308165669988
1.132568326156923710357205 0.01590165949025688224560682 0.6662841630784617219518395
1.140710407696154504719743 0.03295082974512843210224133 0.6581420815392308165669988
1.124415688215040454167593 0.000403616393509765062578426 0.674819304608549885848845
1.124405131812387992340518 -0.0003825035882048833128440957 0.6752123645994072553833121
0.5257201983606062389853264 0.0006571441359258783226904299 0.7249369457753198631166924
0.525852957282247457371227 -0.0003916262926432733911322193 0.7254613309896044137659032
0.5179809549385175904134826 -0.01535237839481634614102745 0.7339904774692593836249443
0.5099761936731465050698375 -0.0326761891974088683476829 0.7419952387346296918124722
0.5099761936731465050698375 0.001971432407776171295138434 0.7419952387346295807901697
0.5178481960168770381613967 -0.0177154370952357989588144 0.7174565697242338835337705
0.5095779169082239601351603 -0.03372495962597661656179326 0.7087946643229374732442238
0.5099761936731472822259548 -0.03399047746925917823368479 0.7259857162038887423705091
0.5099761936731471712036523 0.0339904774692591990503665 0.7259857162038887423705091
0.517582678173594490367293 0.01771543709523583365328392 0.7167994255883081144986591
0.5097106758298652895433634 0.0339904774692591990503665 0.7093190495372221349157371
0.5174499192519532719813924 -0.01666666666666664908813544 0.7162750403740234528271458
0.509312399064941523363359 -0.03215845445540350261426354 0.7081375201870117042091124
0.509312399064941523363359 0.001174878877929830690157731 0.7081375201870117042091124
1.139584436984930171377073 -0.002498675618083566647709137 0.7420831126030138502613909
1.131667549587944243683069 0.01500088292127762547301106 0.7341662252060278115450842
1.139584436984930171377073 0.03250044146063880978747562 0.7420831126030138502613909
1.140657625682892195584373 -0.03373694972684307402666093 0.7243945754097352862643788
1.132311462806721458207448 -0.01790317493287093414400246 0.7331443546794159660251466
1.140013712464114981059993 -0.03416622520602784901511129 0.7416794962095041299221521
1.132311462806721458207448 0.01790317493287095149123722 0.7331443546794159660251466
1.140013712464114981059993 0.03416622520602786289289909 0.7416794962095041299221521
1.140657625682892195584373 0.03373694972684308790444874 0.7243945754097352862643788