# geometry NO_DATA 420
#  x  y  z
0.695952384629097364765471 0.02584197027688038897363931 0.4298895856477831234343512
0.6919047692581946629175604 -0.01666666666666666990481716 0.4338733697675374312296981
0.695952384629097364765471 -0.007491363056452947366548045 0.4298895856477831234343512
0.6790855316237176531046771 -0.008971808602287245637540991 0.4419047692581944408729555
0.6703139093601433451397043 -0.0342099111938150776679457 0.4459523846290971982320173
0.6703139093601433451397043 0.01626629398924059333175762 0.4459523846290971982320173
0.6900469725478826088505002 -0.04190476925819450887411577 0.4320155730572254881849403
0.6772277349134055990376169 -0.04190476925819450887411577 0.4400469725478824978281978
0.6772277349134057100599193 0.04190476925819450193522187 0.4400469725478824978281978
0.6900469725478828308951051 0.04190476925819450193522187 0.4320155730572254881849403
0.7454077326012105153552056 -0.01110188459571717287110992 0.407374658434264180772999
0.7477038663006052576776028 0.01763918133882665106870746 0.4078609157703441678854972
0.7477038663006052576776028 -0.03984295053026099681092731 0.4078609157703441678854972
0.7252683090918594643881079 -0.03638813392274613256471838 0.4131939098239820751246043
0.7374251764192936153818891 -0.04540773260121049037518759 0.4114665015202246256542651
0.7108977761245874882334306 -0.04098040132153563802619445 0.4195330433005969306137217
0.7108977761245874882334306 0.04098040132153563108730054 0.4195330433005969306137217
0.725268309091859242343503 0.03638813392274613256471838 0.4131939098239821306357555
0.7374251764192936153818891 0.0454077326012105042529754 0.4114665015202246256542651
0.7332508652737761423168195 -0.007647067988202302553368828 0.4091020667380216302433382
0.7233901316457362895562255 0.01207439926787715923917066 0.4113157323778591223373269
0.7090195986784644244238507 0.0006038676853525500043406993 0.4176548658544739778264443
0.7045097993392321900074649 0.02491760234022151812571799 0.4217803336912513967327243
0.7045097993392321900074649 -0.02370986696951641464758964 0.4217803336912513967327243
0.7991121176711795115465975 -0.01499114545305474041625438 0.4017256429356266811403486
0.7995560588355897779777592 0.01745430555145800755045826 0.4021194623780223187381466
0.7995560588355897779777592 -0.04743659645756748144407311 0.4021194623780222632269954
0.7700265617106556437221343 -0.04648778238419350172794253 0.404247777372809535822995
0.7853810607338294058621386 -0.04911211767117941440208284 0.4037733703361225945371871
0.7538038362083991916762216 -0.04737566471301409010141725 0.4065862272438739433155774
0.7538038362083991916762216 0.04737566471301410397920506 0.4065862272438740543378799
0.7700265617106556437221343 0.04648778238419350172794253 0.4042477773728095913341463
0.7853810607338294058621386 0.04911211767117941440208284 0.4037733703361226500483383
0.7837576186480057494065932 -0.0140423313796807676390177 0.4022000499723135669150054
0.7688470607892422536977506 0.01577878433784607459244853 0.4030682764513962568209138
0.7526243352869859126741403 -0.01110188459571717287110992 0.4054067263224606643134962
0.7513121676434929563370702 0.01960711345063025426438408 0.4068769497144424929224726
0.7513121676434929563370702 -0.04181088264206459653715697 0.4068769497144424374113214
0.8476569472758194168093837 -0.0117284460760190036021644 0.4048121630195044007294314
0.8488284736379096973024616 0.01926183453313370930182202 0.4061097469527379932863198
0.8488284736379096973024616 -0.04271872668517172344504473 0.4061097469527379377751686
0.8168619950998633472138977 -0.04678055493374673468043312 0.402538381157377278540821
0.8330904655954937121364878 -0.04765694727581937933935663 0.4045692952816646870140005
0.8013668547952870202522035 -0.04912360765792736505552796 0.402204615402092957587854
0.8013668547952870202522035 0.04912360765792735117774015 0.402204615402092957587854
0.8168619950998633472138977 0.04678055493374674855822093 0.4025383811573773340519722
0.8330904655954937121364878 0.04765694727581940015603834 0.4045692952816648535474542
0.8314284767801890518867935 -0.01579027432459401136810584 0.4027812488952169922562518
0.8163715326466489674572813 0.01432361394248604993806318 0.402047918704163009806507
0.8008763923420727515178896 -0.01499114545305474041625438 0.4017141529488786888535401
0.8004381961710365089857078 0.01746579553820595473445643 0.402113717384648350350318
0.8004381961710365089857078 -0.04744808644431543209751823 0.402113717384648350350318
0.8918555939087922102004313 -0.0006821106302873150561971727 0.416136684109397414488285
0.8959277969543959496689922 0.02450681661183827866890006 0.4200567590819832552995194
0.8959277969543961717135971 -0.02587103787241289837295355 0.4200567590819832552995194
0.8681870970137082199613587 -0.03805641440498995498042945 0.4096648364382492468749319
0.8829541739284737511539447 -0.04185559390879226016046744 0.4157575247045378064036925
0.8555926333926453519751476 -0.04620082049619770453441348 0.4080617436879692139228837
0.8555926333926453519751476 0.04620082049619771147330738 0.4080617436879692694340349
0.8681870970137082199613587 0.03805641440498996885821725 0.4096648364382492468749319
0.8829541739284736401316422 0.04185559390879226016046744 0.4157575247045378064036925
0.8770885169940267900301478 -0.01286748716286437860256697 0.4100439958431088549595245
0.8663936431248651093284252 0.008522260575458923820280077 0.4078713825494061362419984
0.853799179503802463386819 -0.01172844607601900880633483 0.4062682897991261032899502
0.851899589751901165080028 0.01780570775351202755798496 0.406837810342548789055428
0.851899589751901165080028 -0.04126259990555004864010158 0.406837810342548789055428
0.9323267676430009309740399 -0.01306064473540241577254051 0.4453874123784035132800341
0.9230822652538949180112127 0.01104751335473804982334478 0.4407748247568071264801404
0.9323267676430009309740399 0.03515567144487852235812397 0.4453874123784035132800341
0.9184696776322986977447727 -0.0407748247568071389701494 0.4367130237299265971273599
0.9184696776322986977447727 0.0407748247568071459090433 0.4367130237299265971273599
0.9046125876215962424709005 0.02342604745985316441747592 0.4280386350814496254635344
0.9092251752431926847819454 -0.0006821106302873092015054413 0.4321004361083301548163149
0.9046125876215962424709005 -0.02479026872042778065208246 0.4280386350814496254635344
0.6423480655832315422415491 0.006856402930034958057015082 0.4645083373468033016706613
0.6346961311664631733009401 -0.0166666666666666664353702 0.4707762670482489308909635
0.6423480655832315422415491 -0.0264769304032983765484488 0.4645083373468033016706613
0.6206477295801643423445171 -0.01143013650593097292607059 0.4846961311664630400741771
0.6142512624106339913510055 -0.02945960100572741352520367 0.4923480655832315200370886
0.6142512624106338803287031 0.006599327993865475479318139 0.4923480655832315200370886
0.6342034139798894409878471 -0.03469613116646311223867372 0.470283549861675309600173
0.6201550123935906100314241 -0.03469613116646311223867372 0.4842034139798894187833866
0.6201550123935906100314241 0.03469613116646311223867372 0.4842034139798893077610842
0.6342034139798894409878471 0.03469613116646311223867372 0.470283549861675309600173
0.6570083452025337056312537 -0.04788994560073378536912969 0.4531609161703439303536811
0.6531609161703438859447601 -0.04788994560073378536912969 0.455907718718796539647542
0.6531609161703438859447601 0.0478899456007337992469175 0.4559077187187965951586932
0.6570083452025335946089513 0.0478899456007337923080236 0.4531609161703439303536811
0.6587498852640123470081335 -0.04019508753635435416295962 0.4510550271996330295998234
0.655957483431455767863838 -0.008971808602287233494476659 0.4521100543992661036085678
0.6587498852640123470081335 0.02225147033177988370455935 0.4510550271996330295998234
0.6521100543992660591996469 -0.011173061569761482542118 0.4548568569477187129024287
0.6510550271996330407020537 0.02005021736430563986108844 0.4565486322965381926763939
0.6510550271996329296797512 -0.04239634050382860147587749 0.4565486322965381926763939
0.9484089006464546667274362 -0.01255257428083247396577438 0.453648145546462266963772
0.9492044503232272001369552 0.01918965969895568973724309 0.454909642062606700552152
0.9492044503232272001369552 -0.04429480826062063419934489 0.454909642062606700552152
0.9463948736672629369337528 -0.04840890064645481799532334 0.4528525958696896225319506
0.9463948736672628259114504 0.04840890064645484575089895 0.4528525958696896780431018
0.9455993239904902925019314 -0.01666666666666665602702935 0.4515910993535451334324193
0.9435852970112984516859456 0.009456414001192889329239222 0.4507955496767726000229004
0.9435852970112984516859456 0.04278974733452622913887353 0.4507955496767726000229004
0.9906248901629379766120564 -0.001064763239566446362260876 0.4916896534025044229743173
0.9827779649777120818399112 0.01564787689877588858222701 0.4833793068050089569709371
0.9906248901629379766120564 0.0323605170371182235267149 0.4916896534025044229743173
0.9744676183802166713476822 -0.03337930680500900137985809 0.4770800329287548935397467
0.9744676183802166713476822 0.03337930680500900137985809 0.4770800329287548935397467
0.9583103465974952550610055 0.004160065857509854039819608 0.4624704124550052530828737
0.966620693194990776575537 -0.01255257428083248090466828 0.4687696863312593720252153
0.9583103465974952550610055 -0.02926521441917480717553879 0.4624704124550052530828737
0.5957644424551522543964666 0.01540537792016653806381754 0.5196409354650139977849221
0.5915288849103046420196961 -0.0166666666666666664353702 0.5284671314152354915094634
0.5957644424551522543964666 -0.01792795541316679480692287 0.5196409354650139977849221
0.5832813934140408385076171 0.0001716836741388731994890915 0.5415288849103045976107751
0.5792694594626245363500061 -0.02469053456949921176999396 0.5457644424551522099875456
0.5792694594626244253277036 0.02503390191777696283104149 0.5457644424551522099875456
0.5897221755101466067472415 -0.04152888491030475026644098 0.5266604220150774562370088
0.5814746840138826922128601 -0.04152888491030475026644098 0.5397221755101464513160181
0.5814746840138826922128601 0.04152888491030476414422878 0.5397221755101465623383206
0.5897221755101466067472415 0.04152888491030475026644098 0.5266604220150774562370088
0.605623841134587115320187 -0.04799426427537798606204333 0.503005576054219250003996
0.6030055760542192277995355 -0.04799426427537798606204333 0.5066104892258167513574563
0.6030055760542192277995355 0.04799426427537798606204333 0.5066104892258167513574563
0.6056238411345870042978845 0.04799426427537799300093724 0.503005576054219250003996
0.6062393980230466050684868 -0.04275773411464228734857329 0.5010028678623109632539467
0.6046240008049897918240845 -0.01143013650593096425245321 0.5020057357246219265078935
0.6062393980230466050684868 0.01989746110278035884366687 0.5010028678623109632539467
0.602005735724621904303433 -0.009456840323471537093635853 0.5056106488962195388836562
0.6010028678623109410494862 0.0218707572852397807983138 0.5082126942055060769831698
0.6010028678623109410494862 -0.04078443793218286539392636 0.5082126942055060769831698
0.9996152969396195908657887 -0.01561332369560895425020242 0.5009113745459091715517275
0.9998076484698097399217431 0.01733530657734399724190233 0.5012456945012477849132893
0.9998076484698097399217431 -0.04856195396856190227286021 0.5012456945012477849132893
0.9992982535858644377313453 -0.0496152969396196213969219 0.5007190230157190224957731
0.9992982535858644377313453 0.0496152969396196213969219 0.5007190230157190224957731
0.9991059020556742886753909 -0.01666666666666666990481716 0.5003847030603802981119088
0.9987888587019191355409475 0.0152631738383955037341444 0.5001923515301901490559544
0.9987888587019191355409475 0.04859650717172884354377871 0.5001923515301901490559544
1.035552383405898613233376 -0.007061248087227876835125784 0.5426136314931264692518198
1.028855744463259336285432 0.01149934823235863358414921 0.5352272629862531161393235
1.035552383405898613233376 0.03005994455194514053397725 0.5426136314931264692518198
1.021469375956385983172936 -0.03522726298625317165047477 0.5264736363119887352368664
1.021469375956385983172936 0.03522726298625317858936867 0.5264736363119887352368664
1.007386368506873353112496 0.002947272623977557903796054 0.5103336411308508901996106
1.014772737013746706224993 -0.01561332369560895251547894 0.5190872678051152711020677
1.007386368506873353112496 -0.03417392001519546640420089 0.5103336411308508901996106
0.5574429858939987658672521 -0.04041332201198784279672083 0.5978563079059867613196388
0.5569370310880192853630888 -0.01136737286668109900289458 0.5957126158119734338214357
0.5574429858939987658672521 0.01767857627862563785203776 0.5978563079059867613196388
0.5690358832533657373886626 -0.04127043953135900444806339 0.5606167080829629334459696
0.5627604001769762609441727 -0.03698305534333241190170227 0.575139682655616324424841
0.5610452668426485489661104 -0.04571261581197340329030254 0.5874415690879626339437891
0.5627604001769762609441727 0.03698305534333241884059618 0.575139682655616324424841
0.5610452668426485489661104 0.04571261581197341716809035 0.5874415690879626339437891
0.5690358832533657373886626 0.0412704395313590183258512 0.5606167080829629334459696
0.5712031305751259502301309 -0.02443208919055346595161637 0.5543647802343203423447449
0.5671487356390436662678667 0.0001716836741388755305237623 0.5587295604686408623251737
0.5712031305751259502301309 0.02477545653883122048211085 0.5543647802343204533670473
0.5608732525626541898233768 0.01237928247864007909317952 0.573252535041294253304045
0.5586521644223469973411511 -0.007937106198025668107876029 0.58341072937962723532479
1.048026697605563661852557 -0.01004498368552953976862163 0.5552841438850046884567746
1.049013348802781742108436 0.02131504725336760830423088 0.5576083341783550917369894
1.049013348802781742108436 -0.04140501462442668784147415 0.5576083341783552027592918
1.046429689585627764714104 -0.04802669760556380756932882 0.554297492687786608200895
1.046429689585627764714104 0.04802669760556382838601053 0.554297492687786608200895
1.045443038388409684458225 -0.01666666666666666296592325 0.5519733023944362049206802
1.043846030368473787319772 0.009526045837922447051537844 0.5509866511972180136424981
1.043846030368473787319772 0.04285937917125579033061911 0.5509866511972180136424981
1.072545501557350178245542 -0.02281983989725149333804843 0.5953653414546016264807804
1.068224738596772693810522 0.001244176345285104377108576 0.5907306829092032751660213
1.072545501557350178245542 0.0253081925878217046943508 0.5953653414546016264807804
1.06359008005137423147346 -0.04073068290920325851267592 0.5820095162785035025621028
1.06359008005137423147346 0.04073068290920327239046372 0.5820095162785035025621028
1.054634658545398284701378 0.01401903255700705577813103 0.5686536911024053786434251
1.059269317090796747038439 -0.01004498368552954323806858 0.5773748577331051512473437
1.054634658545398284701378 -0.03410899992806613878482125 0.5686536911024053786434251
0.5518507377383046197394378 -0.04776336993052250623481569 0.6496141076688271009942355
0.5515042073659115473560632 -0.01520182125953484925107162 0.6492282153376542908063129
0.5518507377383046197394378 0.01735972741145281814101331 0.6496141076688271009942355
0.5562710376428912084634248 -0.04750980579443159212971182 0.6036213907428984448699794
0.5540072830740712106489809 -0.04673802113208591624271548 0.6199021650783922421368288
0.5534946086748528948362491 -0.04922821533765432688856123 0.6353237346422747622298743
0.5540072830740712106489809 0.04673802113208592318160939 0.6199021650783922421368288
0.5534946086748528948362491 0.04922821533765434076634904 0.6353237346422747622298743
0.5562710376428912084634248 0.04750980579443159212971182 0.6036213907428984448699794
0.556544390902769636753078 -0.0422105119944460316361301 0.6012450971027842872018709
0.5551398411055611381570429 -0.01136737286668110247234154 0.6024901942055684855858999
0.556544390902769636753078 0.01947576626108381975255313 0.6012450971027842872018709
0.5528760865367412513649015 0.01589488200432100095671473 0.6187709685410622828527494
0.5520168817651298631687951 -0.01417647246109825405480098 0.6338066457737718817355699
1.091121901562032814325676 0.0136513357960945796998331 0.6225294342340614850428437
1.09329945262808725381376 -0.009296233663985849909883186 0.6340032189641016113768046
1.094842194462182671799155 0.01238171733217630077206195 0.6469846691294278695494313
1.094207385230223650296466 -0.01793628513058494536314136 0.6484923345647140013880971
1.094207385230223650296466 0.04269971979493755731560611 0.6484923345647138903657947
1.091582502928984510504051 -0.03961423612674709604508649 0.6322862692649987570447934
1.085378923203579759615423 -0.04262956699731917931117664 0.6171272680336180593840822
1.093125244763079706444842 -0.04698466912942792644836132 0.6452677194303249041951176
1.093125244763079706444842 0.04698466912942791950946742 0.6452677194303247931728151
1.087095872902682724969736 0.03961423612674708910619259 0.618844217732721024738396
1.087556474269633977058902 0.04698466912942790563167961 0.6286010527636582967403456
1.084918321836628063437047 -0.01666666666666666296592325 0.6073704330026808984044351
1.080892293177277974081107 -0.006126256657395717786229739 0.6036852165013404380999873
1.080892293177277974081107 0.02720707667593761508451067 0.6036852165013404380999873
0.5561230262121028555810653 -0.04271556195196610228315137 0.6988385881640690744376343
0.5548036308599477717251602 -0.01170505229049467049717848 0.6976771763281380822618871
0.5561230262121028555810653 0.01930545737097676128879442 0.6988385881640689634153318
0.5519309216221095493182247 -0.04923952370210693540997227 0.6511984989185437555647695
0.5523599107544745479003723 -0.04691670003024503432520476 0.6667037537492794818660968
0.554460479793614013921399 -0.04767717632813809475189615 0.6829901822669995903325457
0.5523599107544746589226747 0.04691670003024504126409866 0.6667037537492794818660968
0.5544604797936141249437014 0.04767717632813810169079005 0.6829901822669995903325457
0.5519309216221095493182247 0.04923952370210694928776007 0.651198498918543866587072
0.551845083556078197517536 -0.04777467829497512169512063 0.6503802381489465211927836
0.5514928990014589249568644 -0.01520182125953484578162467 0.6507604762978931312034092
0.5518450835560783085398384 0.0173710357759054301318713 0.6503802381489466322150861
0.551921888133823923539012 0.01434384299480477055477312 0.6662657311286287464824341
0.5527030618208083057041335 -0.01590619036877360253923186 0.6813907478104179737954382
1.09657855121107550289139 0.01397434028641215270072351 0.667395789075336254292381
1.096270030820346796929243 -0.01459138106786967738204286 0.6816786497524771615275085
1.094405451720164901274757 0.01086222286750599189120159 0.6973076736197453273646829
1.092849393010711711582417 -0.01977878408557282724489212 0.6986538368098724749444273
1.092849393010711933627022 0.0415032298205848110272953 0.6986538368098726969890322
1.094840501588995707038521 -0.04523238802094849131396614 0.6802491205211259606144836
1.094044190111878034343817 -0.0479247144012030223958476 0.6649286170445867227840608
1.092975922488813811384034 -0.04730767361974548557146392 0.6958781443883941264516579
1.092975922488813811384034 0.04730767361974548557146392 0.6958781443883941264516579
1.095473719343228902189935 0.04523238802094850519175395 0.6663581462759379236970858
1.093735669721148884292461 0.04730767361974548557146392 0.6792114777217275189968859
1.095782239733957830196687 -0.01666666666666666990481716 0.6520752855987970164619583
1.094677407866111007450627 0.01030643173337931518818156 0.6510376427993984638220581
1.094677407866111007450627 0.0436397650667126602019863 0.6510376427993984638220581
0.570636650864376315794857 -0.02516553043894449726014528 0.7458021813033207658705237
0.5666150534772069757849522 -0.0002278344989695678672776691 0.7416043626066415317410474
0.570636650864376315794857 0.0247098614410053568635206 0.7458021813033207658705237
0.5582223655610684120986775 -0.04608884129331790313610639 0.7057415583729824692937882
0.559939377069661681218804 -0.03769320389995949038830503 0.7182104063429699536413864
0.5662032138001691361495205 -0.04160436260664159002775619 0.7329214936562955529097962
0.559939377069661681218804 0.03769320389995950426609284 0.7182104063429699536413864
0.5662032138001691361495205 0.04160436260664159002775619 0.7329214936562955529097962
0.5582223655610684120986775 0.0460888412933179170138942 0.7057415583729822472491833
0.5569171937295129826139828 -0.04112722691714591066736162 0.7019555793533411858220461
0.5563919658947680257909951 -0.01170505229049466702773152 0.7039111587066819719638033
0.5569171937295129826139828 0.01771712233615656967300467 0.7019555793533408527551387
0.5581089774033611838888191 0.008271029273308267565356644 0.716380006676669567333704
0.5603512167466994098319333 -0.01275550795998456332647208 0.7268932752933159324726375
1.089940764592688404732712 0.006664472896571919414976382 0.7167237083038835443460357
1.087468736968772997641963 -0.01160852814440237537607636 0.725860208824370745084309
1.078694327425609333914736 -0.005940290941925167184090029 0.7399978062299054082373573
1.072391945506360411144442 -0.02927143050516373828928707 0.7449989031149526486075274
1.072391945506360855233652 0.01739084862131342126834177 0.7449989031149526486075274
1.08545799105971640940993 -0.03493966770764095342016731 0.7238494629153141568522756
1.087556866045183534552621 -0.04494186147773569783847591 0.7121838931336947897676737
1.076683581516552745682702 -0.03999780622990523754056724 0.7379870603208488200053239
1.076683581516552745682702 0.03999780622990525141835505 0.7379870603208488200053239
1.089567611954240122784654 0.03493966770764096729795511 0.7141946390427513779997071
1.085084838421268127461872 0.03999780622990524447946115 0.7213203936541821015282494
1.092039639578155085786193 -0.01666666666666665602702935 0.7050581385222641772614338
1.091666486939707247927345 0.005804084345241706036078178 0.7025290692611321219374076
1.09166648693970702588274 0.03913741767857504411098901 0.7025290692611321219374076
0.5912343344001136369314509 0.009738032838974236202189694 0.7719680153527068711127868
0.5956171672000568628746464 0.0343057005724211952490954 0.7807875323055841754182893
0.5956171672000568628746464 -0.01482963489447272284471602 0.7807875323055841754182893
0.587169916617238718536953 -0.04123433440011362721699939 0.7675851825527636451695912
0.587169916617238718536953 0.04123433440011362721699939 0.7675851825527636451695912
0.5827870838172954925937574 -0.01666666666666666296592325 0.7587656655998863408640887
0.5787226660344205741992596 -0.008993500098855949226317463 0.7543828327999431149208931
0.5787226660344205741992596 0.0243398332344773871138699 0.7543828327999431149208931
0.6061115416686213563934871 -0.04290810473462728508176056 0.7990196464032486289852386
0.6045263012294378457411881 -0.0115354785947968628556648 0.7980392928064972135615562
0.6061115416686212453711846 0.01983714754503356630932487 0.7990196464032487400075411
0.6035459476326864303175057 -0.04803929280649710253925377 0.7955553294894024407568622
0.6035459476326864303175057 0.04803929280649710253925377 0.7955553294894024407568622
0.6009803535967515042415243 0.04111065897880465669356198 0.7920910125755562525284859
0.6019607071935029196652067 0.009738032838974230998019266 0.7945749758926510253331799
0.6009803535967515042415243 -0.02163459330085619469752345 0.7920910125755562525284859
1.045769877310292805816516 0.01951702510978953544751313 0.7737471477994966040370173
1.041539754620586011313321 -0.01666666666666665602702935 0.7805283898651877994012693
1.045769877310292805816516 -0.01381630822354379742322728 0.7737471477994966040370173
1.028260327256734329992582 -0.009892188061037001517439293 0.7915397546205860113133213
1.019211022582589443175038 -0.03476527601495640190654157 0.7957698773102930278611211
1.019211022582589443175038 0.01498089989288238846332213 0.7957698773102930278611211
1.039336200856178837881316 -0.04153975462058605294668467 0.7783248361007806259692643
1.026056773492327156560577 -0.04153975462058605294668467 0.7893362008561788378813162
1.026056773492327156560577 0.04153975462058606682447248 0.7893362008561789489036187
1.039336200856178837881316 0.04153975462058606682447248 0.7783248361007807369915668
1.061394965791392586140773 -0.04562196803661672239726954 0.7560317779290219863952416
1.056031777929021808759558 -0.04562196803661672239726954 0.7616870798402903819379617
1.056031777929021808759558 0.04562196803661673627505735 0.7616870798402903819379617
1.061394965791392586140773 0.04562196803661673627505735 0.7560317779290219863952416
1.062915391706432899354695 -0.03489559231187521620709546 0.7521890159816916332502501
1.059741219825753866246032 -0.005940290941925156775749173 0.7543780319633832665005002
1.062915391706432899354695 0.02301501042802490265559712 0.7521890159816916332502501
1.054378031963383088864816 -0.005356062844129858002695244 0.7600333338746516620432203
1.052189015981691344592264 0.02359923852582020142865105 0.7634996198042285353579928
1.052189015981691344592264 -0.03431136421407991743404153 0.7634996198042285353579928
0.6348241326452604971208871 0.01157974927720796867736119 0.829299075326676460306885
0.6424120663226302596626738 0.02973721525580184932291417 0.8358343496212441436910012
0.6424120663226302596626738 -0.006577716701385913702915254 0.8358343496212442547133037
0.6283109936918984672615807 -0.03482413264526054708092317 0.8217111416493068087874008
0.6283109936918984672615807 0.03482413264526054708092317 0.8217111416493070308320057
0.620723060014528704719794 -0.0166666666666666664353702 0.8151758673547393474478895
0.6142099210611666748604875 -0.02671134594953631161140528 0.8075879336773695849061028
0.6142099210611666748604875 0.006621987383797029932952505 0.8075879336773699179730102
0.6578305974855893634156701 -0.04119772435365433305154426 0.8490283218392434827492821
0.6553728159839291578236953 -0.009807747341833678023093057 0.8480566436784870987253271
0.6578305974855893634156701 0.02158222966998699088314595 0.8490283218392434827492821
0.6544011378231728848220428 -0.04805664367848733187216226 0.8464848631445139881535056
0.6544011378231727737997403 0.04805664367848731799437445 0.846484863144514099175808
0.650971678160756295206113 0.04296972628902862717525934 0.8439414044497848266246365
0.651943356321512679230068 0.01157974927720796000374381 0.8455131849837578261741555
0.6509716781607564062284155 -0.01981022773461270022887781 0.8439414044497848266246365
0.9492992328772158483474186 0.04494766573035163803595538 0.845648432853135845199688
0.9485984657544316300814558 -0.01666666666666666990481716 0.8467730657423915285875182
0.9492992328772157373251162 0.01161433239701830169576802 0.845648432853135845199688
0.9461863991673222784584141 0.01184253349244811584495274 0.8485984657544315412636138
0.9444750997029972561236377 -0.02008926559531677355496804 0.8492992328772157595295766
0.9444750997029972561236377 0.04377433258021302259210827 0.8492992328772157595295766
0.947899111411142136773833 -0.04859846575443155930473793 0.8460737113991020352798955
0.9454870448240326741284889 -0.04859846575443156624363183 0.8478991114111420479559911
0.9454870448240326741284889 0.04859846575443156624363183 0.8478991114111420479559911
0.947899111411142136773833 0.04859846575443156624363183 0.8460737113991019242575931
0.9838845582205927309260574 -0.01132056574377522141505725 0.8187884922408528165505004
0.9919422791102965319964824 0.005897325810150966414469043 0.8134038218125950736592245
0.9919422791102965319964824 -0.02853845729770139796888095 0.8134038218125950736592245
0.9752525672006641110911573 -0.01732529287336159740107178 0.8247013423134048615281699
0.9836396011937154071347322 -0.03388455822059285166281128 0.8190947601012350531846096
0.9666436214237010826622054 -0.03344073465276874157492415 0.8314848880783279883033288
0.9666436214237013047068103 0.03344073465276874157492415 0.8314848880783279883033288
0.9752525672006641110911573 0.01732529287336158352328397 0.8247013423134048615281699
0.9836396011937154071347322 0.03388455822059284472391738 0.8190947601012350531846096
0.9754975242275414348824825 -0.0001074013194354222838159535 0.8243950744530226248940608
0.9751682111241939399093326 0.0005512248872595028542989426 0.8246169862369346903463452
0.9665592653472311335249856 0.01301586664258672955407636 0.831400532001857817121504
0.9582796326736156000691835 0.02978993462868881336724769 0.8379621659828689894666809
0.9582796326736154890468811 -0.003758201343515339080264548 0.8379621659828689894666809
1.00654586198779583128271 -0.04785159368512281741203651 0.8031586226849807275129933
1.003158622684980905148677 -0.04785159368512281741203651 0.8058316731464263416029326
1.003158622684980905148677 0.04785159368512281741203651 0.8058316731464263416029326
1.00654586198779583128271 0.04785159368512281741203651 0.8031586226849807275129933
1.00784868176306852127766 -0.04107711507949315943299951 0.8010742031574387134185145
1.00553564561769226415322 -0.009892188061037013660503625 0.8021484063148772714058055
1.00784868176306852127766 0.02129273895741913905088616 0.8010742031574387134185145
1.002148406314877338019187 -0.01132056574377521274143987 0.8048214567763229965180471
1.001074203157438669009593 0.01986436127468093476577948 0.8064203040803301636429978
1.001074203157438669009593 -0.04250549276223136718755313 0.8064203040803301636429978
0.6911728195795503459919473 0.0002710914859356400308243451 0.8672960594967511482877853
0.6955864097897752618138156 0.02477724439881912738004033 0.8713513483628272382475188
0.6955864097897752618138156 -0.02423506142694783344060383 0.8713513483628272382475188
0.682349202785524910908066 -0.04117281957955015031513923 0.8628824692865260104213121
0.682349202785524910908066 0.04117281957955014337624533 0.8628824692865260104213121
0.6779356125753001061085001 -0.01666666666666667337426411 0.8588271804204499204615786