# geometry NO_DATA 580
#  x  y  z
1.999705629119927552395097 0.04924656164533700725138843 1.14954093252540934244621
1.999411258239855104790195 -0.01666666666666666990481716 1.149328909942596066429132
1.999705629119927552395097 0.01591322831200366744175412 1.14954093252540934244621
1.999026986569254482617453 0.01589812332546521739251588 1.149411258239855238016958
1.998937085778726086005008 -0.01684646824772341108800155 1.14970562911992768562186
1.998937085778726086005008 0.04864271489865384934248027 1.14970562911992768562186
1.9996687490032327705336 -0.04941125823985529491588764 1.149586400705973732172538
1.999284477332631926316253 -0.04941125823985529491588764 1.149668749003232903760363
1.999284477332631926316253 0.04941125823985529491588764 1.149668749003232903760363
1.9996687490032327705336 0.04941125823985529491588764 1.149586400705973732172538
2.035695210318008818717317 0.01089643820216063332950718 1.128086342116404683366682
2.042847605159004320540816 0.02992498185350284806149901 1.134715499709822994489627
2.042847605159004320540816 -0.008132105449181579667761177 1.134715499709822994489627
2.033344529935323663494273 -0.01969526561688816554407389 1.130982652950648148504342
2.042011224251429446496786 -0.03569521031800887422846813 1.136764233034501359043134
2.023830258109652113773791 -0.03400005529887928368282246 1.14041457647906008254779
2.023830258109652113773791 0.03400005529887929062171636 1.14041457647906008254779
2.033344529935323663494273 0.01969526561688816901352084 1.130982652950647926459737
2.042011224251429446496786 0.03569521031800888810625594 1.136764233034501359043134
2.027028516001902591625594 -0.0006667219655459492941990129 1.12230476203255147282789
2.025514216526791422268161 0.002361876984675550898706842 1.12315233954211635136744
2.015999944701120316636889 0.01650197007214837530142404 1.132584263070528285410887
2.007999972350559936273839 0.03383535870436099601832325 1.141168609089375340914785
2.007999972350559936273839 -0.0008314185600642423797090874 1.141168609089375340914785
2.093184392425579520846668 -0.003168488528719233011943235 1.113564696643394302810748
2.096592196212789804832255 0.02334923723019344948825804 1.116905981925157664846893
2.096592196212789804832255 -0.02968621428763192071631494 1.116905981925157664846893
2.083727736997907697968913 -0.02951125708824741192271013 1.123876677905661480849631
2.093557835995908167348034 -0.04318439242557935153765669 1.123789199305969210840317
2.070468874118450930410518 -0.03632686466266805969116405 1.134250426552864787765884
2.070468874118450930410518 0.03632686466266805969116405 1.134250426552864787765884
2.083727736997907253879703 0.02951125708824741192271013 1.123876677905661480849631
2.093557835995908167348034 0.04318439242557935153765669 1.123789199305968988795712
2.083354293427578163289127 -0.002993531329334730289870592 1.113652175243086350775457
2.076931998216787977895592 0.009851059092246015197469333 1.117080939124541982820915
2.063673135337331654426407 0.01089643820216063679895413 1.127454687771745511781774
2.056836567668665516350757 0.03055663619816203005474797 1.134399672537493408697173
2.056836567668665516350757 -0.008763759793840759926286665 1.134399672537493186652569
2.141013491769641508000177 0.001386951187478701165781136 1.118013317157431130155487
2.145506745884820709591168 0.02573377629045365058702011 1.122546871969324566720161
2.145506745884820709591168 -0.02295987391549616368768838 1.122546871969324566720161
2.122460326388676321585081 -0.03418173765229320926195555 1.114780167952368339356894
2.135711115996668851835238 -0.04101349176964161347136439 1.12039109982076667826334
2.110286913837189359810509 -0.04316824588265159856614872 1.117036002906162561743031
2.110286913837189359810509 0.04316824588265159856614872 1.117036002906162561743031
2.122460326388676321585081 0.03418173765229313293412261 1.114780167952368339356894
2.135711115996668851835238 0.04101349176964153714353145 1.120391099820766900307945
2.127762702161648977750019 -0.009834912549318343757964733 1.112402385289032569204437
2.119005166668835649090852 0.007680158436308201670705831 1.111325008232527666862666
2.10683175411734824322707 -0.003168488528719233011943235 1.113580843186321889248802
2.103415877058673721933246 0.02333309068726570345564397 1.11691405519662145806592
2.103415877058674166022456 -0.02967006774470416774480697 1.11691405519662145806592
2.185490217932941625633703 0.013422675489122404268727 1.129554453144952841370241
2.192745108966470901634693 0.03224622675539750432660568 1.137344233189318210008878
2.192745108966470901634693 -0.005400875777152696656513431 1.137344233189318210008878
2.174927909864322383981516 -0.02599473074332297323207897 1.1227710252647140620752
2.186846832936179652051578 -0.03549021793294176302380194 1.133067952747799367330117
2.165516134231184608438525 -0.04050451281038121298383459 1.124542943158257646274478
2.165516134231185052527735 0.04050451281038112971710774 1.124542943158258090363688
2.174927909864322828070726 0.02599473074332289690424602 1.122771025264714284119805
2.186846832936180096140788 0.03549021793294176996269584 1.133067952747799367330117
2.173571294861083913474431 -0.007171179477047871439476801 1.119257525661867536115324
2.16890726282275636549457 0.00215688459960835382522859 1.116750378223147821543648
2.159495487189618589951579 0.001386951187478702249983309 1.118522296116691405742927
2.154747743594809250566868 0.02522479733119323969114944 1.122801361448954926558486
2.154747743594809250566868 -0.02245089495623575973071162 1.122801361448954704513881
2.212951979586908812791535 -0.0317272934241647069919523 1.144679273011073750154765
2.214457080276844180843909 -0.009035414068684036181799968 1.139358546022147367082766
2.212951979586908812791535 0.01365646528679649064630386 1.144679273011073750154765
2.209136353287918019816516 -0.03935854602214719499819751 1.14305727742230134325041
2.209136353287917575727306 0.03935854602214734071496949 1.14305727742230134325041
2.205320726988926338663077 0.03611455484460307507887933 1.141435281833529380435266
2.210641453977852499690471 0.01342267548912254651605203 1.137736550433375182223017
2.205320726988926338663077 -0.009269203866358124294100307 1.141435281833529380435266
1.895609867148324134689119 0.03981115886973245893143414 1.194201291721408431101281
1.89121973429664835819608 -0.01666666666666673929375619 1.190515446583190417584319
1.895609867148324134689119 0.00647782553639912259124678 1.194201291721408431101281
1.886394036844206478775732 0.007015271761782999535017602 1.191219734296648180560396
1.885958472243440597893027 -0.01753779586819861555091471 1.19560986714832417909804
1.885958472243440597893027 0.03156833939176468400988895 1.19560986714832417909804
1.895302321216620677901687 -0.04121973429664835264496503 1.194598033503162959334531
1.890476623764179020525944 -0.04121973429664835958385893 1.195302321216620722310608
1.890476623764178798481339 0.04121973429664828325602599 1.195302321216620722310608
1.895302321216620677901687 0.04121973429664828325602599 1.194598033503162959334531
1.936285038035857164473441 0.009851530875548065308011658 1.176974060735249683062875
1.94314251901792856003226 0.02946990224473894359746851 1.18337567852428593440095
1.94314251901792856003226 -0.009766840493642814716168665 1.18337567852428593440095
1.933190188419211086312544 -0.02058155382032023777982843 1.180238483716687269975409
1.942005112978109071519839 -0.03628503803585754472482705 1.185645840380026072580222
1.923381002734615652371986 -0.03429651578446270276945285 1.189343381687824718895286
1.923381002734615652371986 0.03429651578446270276945285 1.18934338168782494093989
1.933190188419211086312544 0.02058155382032024471872234 1.180238483716687269975409
1.942005112978109071519839 0.03628503803585754472482705 1.185645840380026072580222
1.927470113476959179266146 -0.0009631824511293571051268048 1.171566704071910880458063
1.925512669900132367573065 0.002951704702524212287767513 1.172560965197608329191326
1.915703484215536933632507 0.0152580912397508455802253 1.181665863168746000155807
1.907851742107768533429635 0.03288794035754687844486099 1.189776500014186222387025
1.90785174210776831138503 -0.002371757878045189019133865 1.189776500014186222387025
1.9859607024045919931865 -0.0368659099557840791439034 1.169678307408526185540154
1.969678307408526229949075 -0.0368659099557840791439034 1.182937406179633388347838
1.969678307408525785859865 0.03686590995578409302169121 1.182937406179633388347838
1.985960702404591771141895 0.03686590995578409302169121 1.169678307408526185540154
1.9891318350142397353153 -0.004301119963652197050740789 1.156567045022108164431529
1.979416485040281781238036 0.01589812332546522780085674 1.163134090044216195636295
1.9891318350142397353153 0.03609736661458264050938993 1.156567045022108164431529
1.963134090044215795956006 0.00985153087554806877745861 1.176393188815323398443979
1.95656704502210776475124 0.03005077416466548495543876 1.183085242564322792091502
1.956567045022107986795845 -0.01034771241356935433941544 1.183085242564322792091502
2.238627075579394887228091 0.006748225947226864709915795 1.173080370727551668963429
2.24431353778969722156944 0.02870863485995535369088572 1.17910135482419597963144
2.24431353778969722156944 -0.01521218296550155835156204 1.17910135482419597963144
2.231462497422021851178897 -0.03862707557939515368161665 1.167393908517249334622079
2.231462497422021851178897 0.03862707557939509123157151 1.167393908517249112577474
2.225776035211719516837547 -0.01666666666666673235486229 1.161372924420604801909462
2.218611457054346480788354 -0.02040833848928909691200495 1.155686462210302467568113
2.218611457054346480788354 0.01292499484404424289762936 1.155686462210302467568113
2.281280394335914341041871 0.0112806476433440563966748 1.180000253307429858296018
2.286600682900465031366366 -0.0006400705142419841351189569 1.185960612386223189673728
2.290738092157120320280228 0.008914889027551782529901203 1.194613980976677591883117
2.289555212849224030691175 -0.01903242528245896458827247 1.197306990488338662714796
2.289555212849223586601966 0.03686220333756238393130289 1.197306990488338884759401
2.279194711247051863267643 -0.01545201382106826601403604 1.178554640732810021575006
2.270541342656597461058254 -0.03147860997349280487433987 1.182248788963544461338984
2.276764435002114339567925 -0.04461398097667727130621884 1.19234777012861892231399
2.270541342656597905147464 0.03147860997349290201885452 1.182248788963544683383589
2.276764435002114783657134 0.04461398097667741702299082 1.19234777012861892231399
2.279194711247051863267643 0.0154520138210683336682516 1.178554640732810021575006
2.273874422682500728853938 -0.003531295663482226458024238 1.1725942816540169122419
2.27178873959363869516892 0.0006400705142420523314356062 1.171148669079396853476283
2.263135371003184292959531 0.006748225947226878587703602 1.174842817310131515284866
2.256567685501591924435161 0.02694618827737574676128851 1.179982578115486013814461
2.256567685501591924435161 -0.01344973638292193754417703 1.179982578115486013814461
1.795987830229336612575253 0.04082613891447958720526401 1.244838308685142447274075
1.791975660458673624830794 -0.01666666666666678786601352 1.241400899686576630998047
1.795987830229336612575253 0.007492805581146248262991438 1.244838308685142447274075
1.791456597002673234442227 0.0156285397546655734080101 1.241975660458673802466478
1.794949703317335831798118 -0.00968045403734158621533723 1.245987830229336790210937
1.794949703317335831798118 0.04093753354667285793144771 1.245987830229336568166332
1.795822281553469013104518 -0.0419756604586739440199139 1.245247520781372019271771
1.795303218097468844760556 -0.0419756604586739440199139 1.245822281553469190740202
1.795303218097468622715951 0.04197566045867383299761144 1.245822281553468968695597
1.795822281553469013104518 0.04197566045867382605871754 1.245247520781371797227166
1.840108373553687837187454 0.002872898654263486735438438 1.21966140910677722786204
1.845054186776844185047253 0.02631460554128453588340619 1.224485378544086344732023
1.845054186776844185047253 -0.02056880823275756414725279 1.224485378544086344732023
1.83458444017436850259628 -0.02483985186886520160620684 1.22780939995401383590945
1.843616845998623965385832 -0.0401083735536877164506997 1.229944921772067711884802
1.822863586730857798912098 -0.03473147831517749140051166 1.238955492625426924035992
1.822863586730857798912098 0.03473147831517749140051166 1.238955492625427368125202
1.83458444017436850259628 0.02483985186886520160620684 1.227809399954014057954055
1.843616845998623965385832 0.0401083735536877164506997 1.229944921772067711884802
1.831075967729432374397902 -0.001398144981844149205632566 1.217525887288723573931293
1.82698937512833325946815 0.006775040220354381845235814 1.220214334907978592781319
1.815268521684822333739362 0.0155171451224724258471932 1.231360427579391902952466
1.807634260842411189074141 0.03358195677098324560816422 1.239818072631550194273586
1.807634260842411189074141 -0.002547666526038394781139562 1.239818072631550194273586
1.8764194205095725553889 -0.0402758214931250024815057 1.214578451295347472083108
1.864578451295347605309871 -0.0402758214931250024815057 1.22434823395581249272368
1.864578451295347827354476 0.0402758214931250024815057 1.22434823395581249272368
1.8764194205095725553889 0.0402758214931250024815057 1.214578451295347472083108
1.878544027681887218506063 -0.01659388306467526885690233 1.204862089253437407165848
1.871565147721099942046408 0.007015271761783068056594903 1.209724178506874858740616
1.878544027681887218506063 0.03062442658824141017426257 1.204862089253437407165848
1.859724178506875214011984 0.002872898654263479796544534 1.219493961167339879381188
1.854862089253437762437215 0.02648205348072181844476525 1.224401654574367670491597
1.854862089253437762437215 -0.02073625617219485364750575 1.224401654574367448446992
2.296475442831690916278831 -0.009450899227659329340789363 1.207132440887813462637723
2.298237721415845591366178 0.02035787693736420406187548 1.20897804602316227828851
2.298237721415845591366178 -0.03925967539268299111299143 1.20897804602316227828851
2.294361832596287786856237 -0.04647544283169020157275853 1.205370162303658787550376
2.294361832596288230945447 0.04647544283169031953395489 1.205370162303658343461166
2.29259955401213311176889 -0.01666666666666654500472688 1.203524557168309749854984
2.290485943776730426435506 0.005390331859241960510420455 1.201762278584154852723032
2.290485943776730870524716 0.03872366519257529338116086 1.201762278584154852723032
2.335361168997588610096727 0.01394522244145380771018772 1.229944775556471636690503
2.342680584498794349457285 0.03263972477237602615174339 1.237931304609326099708255
2.342680584498794349457285 -0.004749279889468395986218408 1.23793130460932632175286
2.316707405456442714353216 -0.03144062980105203491953958 1.214679569792187052712507
2.331413802524840761520863 -0.03536116899758887793803197 1.228025244747978916848297
2.307360154290981846259001 -0.04607946080346315281817127 1.210968038010485248179293
2.307360154290981846259001 0.04607946080346327077936763 1.210968038010484804090083
2.316707405456442270264006 0.03144062980105214594184204 1.214679569792187052712507
2.331413802524840761520863 0.03536116899758887099913807 1.228025244747978916848297
2.32065477192919011883987 -0.01274612747012982341687781 1.216599100600679772554713
2.313267790361997811032779 0.00202783566425566302848793 1.21123995469774259348128
2.303920539196536942938565 -0.009450899227659327606065887 1.207528422916040566903462
2.30196026959826882674065 0.01996189490913715877673518 1.209176037037275719399076
2.30196026959826882674065 -0.03886369336445594235840417 1.209176037037275719399076
2.360211229054798742765797 -0.03578629410653651893303717 1.245997523161335163166541
2.361109329785396226952798 -0.01045791445053259952069347 1.241995046322670326333082
2.360211229054798742765797 0.01487046520547141183199447 1.245997523161335163166541
2.357106852946731390119339 -0.04199504632267067605333466 1.244636801048728980134683
2.357106852946731834208549 0.04199504632267059278660781 1.244636801048728758090078
2.354002476838664481562091 0.03927360209745773406142533 1.243276078936122353013616
2.35800495367732931839555 0.01394522244145372791290782 1.240634324210063921256619
2.354002476838664481562091 -0.01138315721455018976471241 1.243276078936122575058221
1.785392502489467014825664 -0.01329586558100227279555217 1.266292898053364535115861
1.792696251244733307572687 0.005429970241798471111693836 1.260674549840930414035256
1.792696251244733307572687 -0.03202170140380296292637041 1.260674549840930414035256
1.79217718778873291718412 -0.0353925024894674103426162 1.258989149298098242368837
1.79217718778873291718412 0.03539250248946736177035888 1.258989149298098242368837
1.784873439033466624437096 -0.01666666666666672541596839 1.264607497510532141404838
1.791658124332732526795553 0.001021042244133045159837359 1.257303748755266070702419
1.791658124332732526795553 0.03435437557746638670419514 1.257303748755266070702419
1.833869900697371768671928 -0.009712944219131785031362547 1.293582844916503660215312
1.826560682973930482830838 0.01078607894720881935080037 1.287165689833007053977099
1.833869900697371768671928 0.03128510211354942893713371 1.293582844916503438170707
1.820143527890433876592624 -0.03716568983300727602170355 1.278601578792669002382354
1.820143527890433876592624 0.03716568983300727602170355 1.278601578792669002382354
1.806417155083496206557925 0.007203157585338390567208933 1.263620312668834566594001
1.812834310166992590751533 -0.01329586558100221554967746 1.272184423709172618188745
1.806417155083496206557925 -0.03379488874734282166656385 1.263620312668834566594001
2.388057783230546959885032 0.007930919873753194612731043 1.274241010039662613806399
2.39402889161527321348899 0.02932203643763387629350703 1.280568694925146022711715
2.39402889161527321348899 -0.01346019669012752176251446 1.280568694925146022711715
2.380466601056673514591466 -0.03805778323054734291197576 1.268269901654936138157836
2.380466601056673958680676 0.03805778323054738454533918 1.268269901654936138157836
2.374495492671947705076718 -0.01666666666666663174090068 1.261942216769452729252521
2.366904310498074259783152 -0.02240013121998513101473804 1.255971108384726253603958
2.366904310498074259783152 0.01093320211334821052961974 1.255971108384726253603958
2.429656469637631488467377 0.008278291090757339265593373 1.278621821453126194967354
2.433536953136883340675922 -0.000517324092252590544971369 1.283019629044631182424041
2.435456325363522633864477 0.004356068545530666913379036 1.291611624424090720708591
2.433495214090909186666067 -0.02058888921189333531813759 1.295805812212045271536454
2.433495214090909186666067 0.02930102630295466914489566 1.295805812212045271536454
2.427978731091931852148491 -0.0116337681821559388306575 1.277461406999679471852005
2.419386735712472091819336 -0.02778311075657000778216243 1.281685528982682287235662
2.422983846484810577237567 -0.04161162442409066519743988 1.29143793881558854863556
2.419386735712472091819336 0.02778311075657004247663195 1.281685528982682287235662
2.422983846484810577237567 0.04161162442409066519743988 1.29143793881558854863556
2.427978731091932296237701 0.01163376818215597352512702 1.277461406999679471852005
2.424098247592679999939946 -0.002838152999146009453773631 1.273063599408174706439922
2.42242050904698036362106 0.0005173240922526228541961091 1.271903184954727983324574
2.413828513667520603291905 0.007930919873753180734943236 1.276127306937730576663625
2.406914256833760035192427 0.02743573953956585792512968 1.28151184337418011516263
2.406914256833760035192427 -0.01157389979205952074137187 1.28151184337418011516263
1.835739037951206187315734 -0.01299990090898034758581936 1.316094344927636772268897
1.84286951897560280499988 0.006072470375559147100219537 1.310797246782083202987224
1.84286951897560280499988 -0.03207227219351985875173128 1.310797246782083202987224
1.839929225115874089624413 -0.03573903795120615678460041 1.308963863903239932540146
1.839929225115874089624413 0.03573903795120618454017603 1.308963863903239932540146
1.832798744091477249895661 -0.01666666666666664214924154 1.314260962048793723866424
1.83698893125614515220434 -0.003474883101584999318262037 1.307130481024396884137673
1.83698893125614515220434 0.02985845023174833745560619 1.307130481024396662093068
1.888398508520594099024947 -0.004473070495353212439049173 1.342871579015947336444015
1.879891885736376000437531 0.01460342086987460354097212 1.335743158031894584070187
1.888398508520594321069552 0.03367991223510241605154647 1.342871579015947336444015
1.872763464752323248063703 -0.03574315803189447721122107 1.328038295228123555347111
1.872763464752323248063703 0.03574315803189448415011498 1.328038295228123777391716
1.857128420984052619147064 0.006076590456247444108073275 1.313205011440300218339416
1.864256841968105371520892 -0.01299990090898036840250107 1.320909874244070802973283
1.857128420984052619147064 -0.03207639227420817917835194 1.313205011440300218339416
2.444375274927065078145461 -0.005111162883172032725398459 1.31140247696468215110599
2.447187637463532627890572 0.02259744537722636198440185 1.314367866319962052656933
2.447187637463532627890572 -0.03281977114357043090464572 1.314367866319962052656933
2.4410323384029646298643 -0.04437527492706505594100008 1.308590114428214823405483
2.44103233840296418577509 0.04437527492706506981878789 1.308590114428214823405483
2.438219975866497080119188 -0.01666666666666666296592325 1.305624725072934921854539
2.434877039342396187748818 -0.001268656527404272982284539 1.302812362536467372109428
2.434877039342396187748818 0.03206467680592905988845587 1.302812362536467372109428
2.484901235298971222675846 0.0150955590881554982396473 1.330979877578439829477475
2.492450617649485611337923 0.03333012772046024807526265 1.339311608105336670604402
2.492450617649485611337923 -0.003139009544149253764372398 1.339311608105336670604402
2.471698882877924940970615 -0.02854404625413052565274796 1.320130980912286977613235
2.485186955022171240159423 -0.03490123529897141280153861 1.33283349926727767709167
2.462581598561772722177921 -0.04364281095515910868787302 1.318359350453520040247213
2.462581598561772722177921 0.04364281095515912256566082 1.318359350453520040247213
2.471698882877924940970615 0.02854404625413052912219491 1.320130980912286977613235
2.485186955022171240159423 0.03490123529897141974043251 1.33283349926727767709167
2.471413163154725367576248 -0.01030947762182577581713261 1.318277359223449352043644
2.465474473360993457049517 0.001567901965638085568649496 1.313906571395355271647531
2.456357189044840794167612 -0.005111162883172031858036721 1.31213494093658833428151
2.453178594522420485901648 0.02186498140532041126182783 1.314734098305915033222391
2.453178594522420485901648 -0.03208730717166447671262475 1.314734098305915033222391
2.505803798178146912789543 -0.04215770123683502262901257 1.347961499414982888822578
2.505959649966599478432272 -0.0129013690735368495576818 1.345922998829965244738105
2.505803798178146912789543 0.01635496308976132351364896 1.347961499414982888822578
2.503921149381582722526218 -0.04592299882996484644559487 1.347175945625727067067601
2.503921149381582722526218 0.04592299882996484644559487 1.347175945625727289112206
2.502038500585017644084473 0.04435189125145367478042502 1.346390391836471467357228
2.504077001170035288168947 0.0150955590881554982396473 1.345137445040709422983127
2.502038500585017644084473 -0.01416077307514267830113042 1.346390391836471467357228
1.896373091058074944470491 -0.0155140340525863826282027 1.35420322524896552529583
1.898186545529037427826324 0.01419239033882178577239408 1.352966087085043067617107
1.898186545529037871915534 -0.04522045844399438796479274 1.352966087085043067617107
1.897154922630641671332796 -0.04637309105807483483596698 1.352389770778003041939996
1.897154922630641671332796 0.04637309105807466830251329 1.352389770778003041939996
1.895341468159678743887753 -0.01666666666666683643827085 1.353626908941925499618719
1.896123299732245470750058 0.01097651192794926386375742 1.351813454470963016262886
1.896123299732245470750058 0.04430984526128260020394478 1.351813454470963016262886
1.947339458478876572655736 0.03454729761300149443181695 1.387207839134124487401323
1.944678916957752967675788 -0.01666666666666666990481716 1.389613107285377013866423
1.947339458478876572655736 0.001213964279668166114725669 1.387207839134124487401323
1.935686425954723732800744 -0.00131831533939184494808039 1.387004741294115106597928
1.929354476472817880861044 0.01134558362441958137556419 1.381991107151601116953543
1.938517049239447676001191 -0.04467891695775295934911497 1.383451239567071500147222
1.921680300809180508281315 -0.02933056563047814480071906 1.37357493245561235184482
1.921850382572780846501814 -0.04467891695775298016579669 1.372426698879821049814609
1.929524558236418219081543 0.02933056563047808928956783 1.380842873575810259012542
1.915518433090875660695929 0.03465164867272513271601042 1.367413064737307504259434
1.938517049239447676001191 0.04467891695775295934911497 1.383451239567071944236432
1.907674175663637727851096 0.002470947953472243246997309 1.360145123617109819136317
1.91534835132727487838622 -0.01551403405258626119755938 1.36856129831309858424504
1.907674175663637727851096 -0.03349901605864472053930569 1.360145123617109819136317
1.962979760918583949091953 -0.03452595328437368937812835 1.397505714202957882719147
1.96023130915485488401373 -0.006181191545124421239665313 1.395011428405915632211531
1.962979760918583949091953 0.02216357019412484169462729 1.397505714202957438629937
1.957737023357812855550719 -0.04501142840591593197174802 1.392439904530581751274099
1.957737023357812855550719 0.04501142840591593197174802 1.392439904530581973318704
1.95249428579704198405409 0.03487980906116446705445 1.387374094858206285962865
1.954988571594083790472496 0.006535047321915204987519132 1.389945618733539944855693
1.95249428579704198405409 -0.02180971441733405707941174 1.38737409485820606391826
2.537274914193520913840985 0.009388059959056605646710025 1.375752449119340470318207
2.54363745709676081219186 0.0299963074859112138748074 1.382417269528962933122784
2.54363745709676081219186 -0.01122018756779800258138735 1.382417269528962489033574
2.528853439226658839089623 -0.03727491419352127466346758 1.369389906216101238101146
2.528853439226658839089623 0.03727491419352128160236148 1.369389906216101238101146
2.522490896323419384827957 -0.01666666666666666296592325 1.362725085806478775296569
2.514069421356556865987386 -0.02562645488001557420032483 1.356362542903239543079508
2.514069421356556865987386 0.007706878453317763007224261 1.356362542903239543079508
2.578620603078815243236477 0.006345662358419639631490483 1.377725059279604202799874
2.581569548308222383781185 -0.0004477718996055736477845954 1.381121776408616774745042
2.581696522965115203618325 0.0007017212133912653637679568 1.389678995691752572128053
2.578874552392600882910756 -0.02231060781169504417253968 1.394839497845876241655105
2.578874552392600882910756 0.0237140502384775749000756 1.394839497845876241655105
2.577260450637990807365441 -0.009065967240068788929319155 1.376812678738385198329297
2.56870323135485456589322 -0.02528486200712987824745781 1.381730594667716305323779
2.570190358452571821601396 -0.03967899569175296903278394 1.391200194492071329221972
2.56870323135485500998243 0.02528486200712987824745781 1.381730594667716305323779
2.570190358452571821601396 0.03967899569175298291057175 1.391200194492071329221972
2.577260450637990807365441 0.009065967240068780255701775 1.376812678738385198329297
2.574311505408583666820732 -0.002272532982043576517405814 1.373415961609372404339524
2.572951352967758786860486 0.0004477718996055646489065638 1.372503581068153621913552
2.564394133684622989477475 0.009388059959056591768922218 1.377421496997484950952639
2.557197066842311627965501 0.02832725960776683732378345 1.383251793468035062417698
2.557197066842311627965501 -0.009551139689653639908151206 1.383251793468034840373093
1.993689090511740369393578 0.01374325052746565301031723 1.420054160015725042143231
1.987378181023480738787157 -0.01666666666666671153818058 1.425560715775472830912918
1.993689090511740369393578 -0.01959008280586768332987013 1.420054160015725042143231
1.97871212568895238348432 -0.0006654440023900209683765938 1.429377569691342220181696
1.976356979842683658787905 0.004044847690147323690523784 1.427687867847463820680787
1.968682933414907409996886 -0.03120930367202187638575595 1.41344019585413627204673
1.982265161405844633435436 -0.03737818102348072768492671 1.415204958597065854064567
1.971440807186274790652192 -0.01520808100774517952757936 1.422106251188664405304962
1.971440807186274790652192 0.01520808100774510493446989 1.422106251188664405304962
1.968682933414907409996886 0.03120930367202182087460471 1.41344019585413627204673
1.982265161405844633435436 0.03737818102348067911266938 1.415204958597066076109172
1.963569913797271526689769 -0.03334564752699890194387322 1.40308443867572929519838
1.961411614912230039209362 -0.006181191545124432515367907 1.406168877351458679214602
1.963569913797271526689769 0.02098326443675004732147826 1.40308443867572929519838
1.964169488683597197820063 0.0006654440023899461584266923 1.414834932685987034517439
1.969085661340006065955777 -0.01049778931520783421815768 1.420416549344786005804053
2.030655886635648332827486 -0.01355184711664120245089293 1.444207733752289612993991
2.024016342689389347242468 0.008196953721271335938092228 1.438415467504579048352298
2.030655886635648332827486 0.02994575455918392983822862 1.444207733752289612993991
2.018224076441679226689985 -0.03841546750457925513133617 1.432390268504281971573278
2.018224076441679226689985 0.03841546750457920655907884 1.432390268504281971573278
2.005792266247710120552483 0.01478053700856418045672669 1.420572803256274330152564
2.011584532495420241104966 -0.006968263829348416045494918 1.426598002256571406931585