/*--------------------------------*- C++ -*----------------------------------*\
| =========                 |                                                 |
| \\      /  F ield         | OpenFOAM: The Open Source CFD Toolbox           |
|  \\    /   O peration     | Version:  v2012                                 |
|   \\  /    A nd           | Website:  www.openfoam.com                      |
|    \\/     M anipulation  |                                                 |
\*---------------------------------------------------------------------------*/
FoamFile
{
    version     2.0;
    format      ascii;
    class       volScalarField;
    location    "1.4";
    object      alpha.water;
}
// * * * * * * * * * * * * * * * * * * * * * * * * * * * * * * * * * * * * * //

dimensions      [0 0 0 0 0 0 0];


internalField   nonuniform List<scalar> 
96000
(
0
0
0
0
0
0
0
0
0
0
0
0
0
0
0
0
0
0
0
0
0
0
0
0
0
0
0
0
0
0
0
0
0
0
0
0
0
0
0
0
0
0
0
0
0
0
0
0
0
0
0
0
0
0
0
0
0
0
0
0
0
0
0
0
0
0
0
0
0
0
0
0
0
0
0
0
0
0
0
0
0
0
0
0
0
0
0
0
0
0
0
0
0
0
0
0
0
0
0
0
0
0
0
0
0
0
0
0
0
0
0
0
0
0
0
0
0
0
0
0
0
0
0
0
0
0
0
0
0
0
0
0
0
0
0
0
0
0
0
0
0
0
0
0
0
0
0
0
0
0
0
0
0
0
0
0
0
0
0
0
0
0
0
0
0
0
0
0
0
0
0
0
0
0
0
0
0
0
0
0
0
0
0
0
0
0
0
0
0
0
0
0
0
0
0
0
0
0
0
0
0
0
0
0
0
0
0
0
0
0
0
0
0
0
0
0
0
0
0
0
0
0
0
0
0
0
0
0
0
0
0
0
0
0
0
0
0
0
0
0
0
0
0
0
0
0
0
0
0
0
0
0
0
0
0
0
0
0
0
0
0
0
0
0
0
0
0
0
0
0
0
0
0
0
0
0
0
0
0
0
0
0
0
0
0
0
0
0
0
0
0
0
0
0
0
0
0
0
0
0
0
0
0
0
0
0
0
0
0
0
0
0
0
0
0
0
0
0
0
0
0
0
0
0
0
0
0
0
0
0
0
0
0
0
0
0
0
0
0
0
0
0
0
0
0
0
0
0
0
0
0
0
0
0
0
0
0
0
0
0
0
0
0
0
0
0
0
0
0
0
0
0
0
0
0
0
0
0
0
0
0
0
0
0
0
0
0
0
0
0
0
0
0
0
0
0
0
0
0
0
0
0
0
0
0
0
0
0
0
0
0
0
0
0
0
0
0
0
0
0
0
0
0
0
0
0
0
0
0
0
0
0
0
0
0
0
0
0
0
0
0
0
0
0
0
0
0
0
0
0
0
0
0
0
0
0
0
0
0
0
0
0
0
0
0
0
0
0
0
0
0
0
0
0
0
0
0
0
0
0
0
0
0
0
0
0
0
0
0
0
0
0
0
0
0
0
0
0
0
0
0
0
0
0
0
0
0
0
0
0
0
0
0
0
0
0
0
0
0
0
0
0
0
0
0
0
0
0
0
0
0
0
0
0
0
0
0
0
0
0
0
0
0
0
0
0
0
0
0
0
0
0
0
0
0
0
0
0
0
0
0
0
0
0
0
0
0
0
0
0
0
0
0
0
0
0
0
0
0
0
0
0
0
0
0
0
0
0
0
0
0
0
0
0
0
0
0
0
0
0
0
0
0
0
0
0
0
0
0
0
0
0
0
0
0
0
0
0
0
0
0
0
0
0
0
0
0
0
0
0
0
0
0
0
0
0
0
0
0
0
0
0
0
0
0
0
0
0
0
0
0
0
0
0
0
0
0
0
0
0
0
0
0
0
0
0
0
0
0
0
0
0
0
0
0
0
0
0
0
0
0
0
0
0
0
0
0
0
0
0
0
0
0
0
0
0
0
0
0
0
0
0
0
0
0
0
0
0
0
0
0
0
0
0
0
0
0
0
0
0
0
0
0
0
0
0
0
0
0
0
0
0
0
0
0
0
0
0
0
0
0
0
0
0
0
0
0
0
0
0
0
0
0
0
0
0
0
0
0
0
0
0
0
0
0
0
0
0
0
0
0
0
0
0
0
0
0
0
0
0
0
0
0
0
0
0
0
0
0
0
0
0
0
0
0
0
0
0
0
0
0
0
0
0
0
0
0
0
0
0
0
0
0
0
0
0
0
0
0
0
0
0
0
0
0
0
0
0
0
0
0
0
0
0
0
0
0
0
0
0
0
0
0
0
0
0
0
0
0
0
0
0
0
0
0
0
0
0
0
0
0
0
0
0
0
0
0
0
0
0
0
0
0
0
0
0
0
0
0
0
0
0
0
0
0
0
0
0
0
0
0
0
0
0
0
0
0
0
0
0
0
0
0
0
0
0
0
0
0
0
0
0
0
0
0
0
0
0
0
0
0
0
0
0
0
0
0
0
0
0
0
0
0
0
0
0
0
0
0
0
0
0
0
0
0
0
0
0
0
0
0
0
0
0
0
0
0
0
0
0
0
0
0
0
0
0
0
0
0
0
0
0
0
0
0
0
0
0
0
0
0
0
0
0
0
0
0
0
0
0
0
0
0
0
0
0
0
0
0
0
0
0
0
0
0
0
0
0
0
0
0
0
0
0
0
0
0
0
0
0
0
0
0
0
0
0
0
0
0
0
0
0
0
0
0
0
0
0
0
0
0
0
0
0
0
0
0
0
0
0
0
0
0
0
0
0
0
0
0
0
0
0
0
0
0
0
0
0
0
0
0
0
0
0
0
0
0
0
0
0
0
0
0
0
0
0
0
0
0
0
0
0
0
0
0
0
0
0
0
0
0
0
0
0
0
0
0
0
0
0
0
0
0
0
0
0
0
0
0
0
0
0
0
0
0
0
0
0
0
0
0
0
0
0
0
0
0
0
0
0
0
0
0
0
0
0
0
0
0
0
0
0
0
0
0
0
0
0
0
0
0
0
0
0
0
0
0
0
0
0
0
0
0
0
0
0
0
0
0
0
0
0
0
0
0
0
0
0
0
0
0
0
0
0
0
0
0
0
0
0
0
0
0
0
0
0
0
0
0
0
0
0
0
0
0
0
0
0
0
0
0
0
0
0
0
0
0
0
0
0
0
0
0
0
0
0
0
0
0
0
0
0
0
0
0
0
0
0
0
0
0
0
0
0
0
0
0
0
0
0
0
0
0
0
0
0
0
0
0
0
0
0
0
0
0
0
0
0
0
0
0
0
0
0
0
0
0
0
0
0
0
0
0
0
0
0
0
0
0
0
0
0
0
0
0
0
0
0
0
0
0
0
0
0
0
0
0
0
0
0
0
0
0
0
0
0
0
0
0
0
0
0
0
0
0
0
0
0
0
0
0
0
0
0
0
0
0
0
0
0
0
0
0
0
0
0
0
0
0
0
0
0
0
0
0
0
0
0
0
0
0
0
0
0
0
0
0
0
0
0
0
0
0
0
0
0
0
0
0
0
0
0
0
0
0
0
0
0
0
0
0
0
0
0
0
0
0
0
0
0
0
0
0
0
0
0
0
0
0
0
0
0
0
0
0
0
0
0
0
0
0
0
0
0
0
0
0
0
0
0
0
0
0
0
0
0
0
0
0
0
0
0
0
0
0
0
0
0
0
0
0
0
0
0
0
0
0
0
0
0
0
0
0
0
0
0
0
0
0
0
0
0
0
0
0
0
0
0
0
0
0
0
0
0
0
0
0
0
0
0
0
0
0
0
0
0
0
0
0
0
0
0
0
0
0
0
0
0
0
0
0
0
0
0
0
0
0
0
0
0
0
0
0
0
0
0
0
0
0
0
0
0
0
0
0
0
0
0
0
0
0
0
0
0
0
0
0
0
0
0
0
0
0
0
0
0
0
0
0
0
0
0
0
0
0
0
0
0
0
0
0
0
0
0
0
0
0
0
0
0
0
0
0
0
0
0
0
0
0
0
0
0
0
0
0
0
0
0
0
0
0
0
0
0
0
0
0
0
0
0
0
0
0
0
0
0
0
0
0
0
0
0
0
0
0
0
0
0
0
0
0
0
0
0
0
0
0
0
0
0
0
0
0
0
0
0
0
0
0
0
0
0
0
0
0
0
0
0
0
0
0
0
0
0
0
0
0
0
0
0
0
0
0
0
0
0
0
0
0
0
0
0
0
0
0
0
0
0
0
0
0
0
0
0
0
0
0
0
0
0
0
0
0
0
0
0
0
0
0
0
0
0
0
0
0
0
0
0
0
0
0
0
0
0
0
0
0
0
0
0
0
0
0
0
0
0
0
0
0
0
0
0
0
0
0
0
0
0
0
0
0
0
0
0
0
0
0
0
0
0
0
0
0
0
0
0
0
0
0
0
0
0
0
0
0
0
0
0
0
0
0
0
0
0
0
0
0
0
0
0
0
0
0
0
0
0
0
0
0
0
0
0
0
0
0
0
0
0
0
0
0
0
0
0
0
0
0
0
0
0
0
0
0
0
0
0
0
0
0
0
0
0
0
0
0
0
0
0
0
0
0
0
0
0
0
0
0
0
0
0
0
0
0
0
0
0
0
0
0
0
0
0
0
0
0
0
0
0
0
0
0
0
0
0
0
0
0
0
0
0
0
0
0
0
0
0
0
0
0
0
0
0
0
0
0
0
0
0
0
0
0
0
0
0
0
0
0
0
0
0
0
0
0
0
0
0
0
0
0
0
0
0
0
0
0
0
0
0
0
0
0
0
0
0
0
0
0
0
0
0
0
0
0
0
0
0
0
0
0
0
0
0
0
0
0
0
0
0
0
0
0
0
0
0
0
0
0
0
0
0
0
0
0
0
0
0
0
0
0
0
0
0
0
0
0
0
0
0
0
0
0
0
0
0
0
0
0
-9.390051773083604431693813e-47
-1.56404570094476647572407e-34
-4.735240401218011863808109e-33
-7.144974534668213358961344e-32
-7.164282127586421237205326e-31
-5.370537412240691188474864e-30
-3.210485833886638509673678e-29
-1.594284370817782786930857e-28
-6.764596800419037207571757e-28
-2.50356012880053574698631e-27
-8.210263201451511797467365e-27
-2.415667559887812592479736e-26
-6.44118369036041467599626e-26
-6.843967218132784793685391e-26
-7.24308631572553180044344e-26
-7.634196303308010683923439e-26
-8.012642552320052208009859e-26
-8.373524193838878544480999e-26
-8.711772669224366563156817e-26
-9.022244588525630534076689e-26
-9.299827699043490242141309e-26
-9.539558045277908194373169e-26
-9.736745651132435230753039e-26
-9.887105312403726012852938e-26
-9.986888395990951275347273e-26
-1.003301095096145212726171e-25
-1.0023172997467394589615e-25
-9.955963623884930560645512e-26
-9.830946537181179781316617e-26
-9.648721013985866955321693e-26
-9.410953813798398851266708e-26
-9.120378546330586279081484e-26
-8.780760215104748959680449e-26
-8.396824147318178617935306e-26
-7.97415019864182926801041e-26
-7.519034900518868108533329e-26
-7.038325986989582954726117e-26
-6.539235376197933884910546e-26
-6.029138063683822904145067e-26
-5.515365393443146172312668e-26
-5.005001711196635711124419e-26
-4.504693405570632332260455e-26
-4.020478779798492835969563e-26
-3.557646087424592915911514e-26
-3.120625475576352258297897e-26
-2.712918617403630038125803e-26
-2.337067625030689910975987e-26
-1.994662581851797375731536e-26
-1.686384890716260895751694e-26
-1.412081764423484837937312e-26
-1.170865722200998583516896e-26
-9.612319957181365244298503e-27
-7.811863373344985227770677e-27
-6.283758567572226663679709e-27
-5.00216136571779045989413e-27
-3.940088985230771013660481e-27
-3.070457895761991835901592e-27
-2.366952953764277343312048e-27
-1.804712365292920641313177e-27
-1.360826432923381899763785e-27
-1.014659454459724920833816e-27
-7.480129635223393762837581e-28
-5.451544656481030668029777e-28
-3.92738964247998786403032e-28
-2.796511749642468434164617e-28
-1.967948569190311769770641e-28
-1.36852702444908710673527e-28
-9.403629966394106249784906e-29
-6.384134776567005702661658e-29
-4.281900828794431990015722e-29
-2.8370350241983493722537e-29
-1.85675074502364601819109e-29
-1.200251832382552529761753e-29
-7.199667335214323614665806e-30
-4.138347091717501953650529e-30
-2.283851992234631421780789e-30
-1.212258021582977778794214e-30
-6.198547827139165493370255e-31
-3.057512912915151729433833e-31
-1.456763970457881868962628e-31
-6.712168311824342019634032e-32
-2.994035029757410714038917e-32
-1.29420067651049946747442e-32
-5.426183197708987680846706e-33
-2.20853106096672003042213e-33
-8.733148777870693609285122e-34
-3.357493317158440284048004e-34
-1.255839069385721503742705e-34
-4.573049147522072279072017e-35
-1.62215360778191762207402e-35
-5.608383395593995362853197e-36
-1.890923427836851471572502e-36
-6.220400679502287489263609e-37
-1.997452010672096676283673e-37
-6.263859775408833105089802e-38
-1.919106183249978618480829e-38
-5.746735071083739747791649e-39
-1.682570828545813037839841e-39
-4.818500105928340544650548e-40
-1.350159612954678213378113e-40
-3.702831840704692570269586e-41
-9.942426292243402521009847e-42
-2.614493174292973886669201e-42
-6.735042096522313060400089e-43
-1.700065789703044738347949e-43
-4.206036027945558285744936e-44
-1.020154323329784922750572e-44
-2.426291240786943596067815e-45
-5.659755369170641402425093e-46
-1.295145901943351731977943e-46
-2.907970124940508217299922e-47
-6.407530586772368604407299e-48
-1.385784551971217439042211e-48
-2.942221425847529239422194e-49
-6.13331863393189925928562e-50
-1.255503050745924922501696e-50
-2.52405735978589502888478e-51
-4.984166617285882265287267e-52
-9.668206484254366027393062e-53
-1.842480116476875045799432e-53
-3.449863427668970855929131e-54
-6.347121699117964865038519e-55
-1.147508423894157250486259e-55
-2.038739301473392309198479e-56
-3.559678352563583936774517e-57
-6.10819485816515290672774e-58
-1.030078965481631868357183e-58
-1.707174425793965150297589e-59
-2.780481278942400231115312e-60
-4.450113910874770533500706e-61
-6.998314969947751067485942e-62
-1.081271725096688453223886e-62
-1.641065898547773550983077e-63
-2.446117936187984534517813e-64
-3.579929303098661148713232e-65
-5.142471410805080425516524e-66
-7.247457352292357325366912e-67
-1.001572123979868029407449e-67
-1.356323818711635747208066e-68
-1.798228460851183259813648e-69
-2.331442883663735690255133e-70
-2.951453769949154095296871e-71
-3.64058504369148786256301e-72
-4.362743432613499519181661e-73
-5.057696381437780817985316e-74
-5.635364466982865399694166e-75
-5.970803422095367466138987e-76
-5.900719872233419561496346e-77
-5.22247450190974569100809e-78
-3.696539002765215174813584e-79
-1.053255238497974043897622e-80
2.995525578805268493779058e-81
8.739772669968997602265452e-82
1.644998506502083258121217e-82
2.635233925378104944185625e-83
3.860199415956411783933354e-84
5.3256852615737103922124e-85
7.025447927304315009961629e-86
8.939500604702495670465601e-87
1.103326533733912387361846e-87
1.325779348958770867151354e-88
1.555117216315072920552395e-89
1.784111990188963355877424e-90
2.004864827888410813048236e-91
2.209254244405216263106008e-92
2.389431000552151749754196e-93
2.538317861690802119626325e-94
2.650069911890654819282669e-95
2.72045378209215297934163e-96
2.74711163595966968274937e-97
2.729687163883976765968804e-98
2.669804728795150244122002e-99
2.570907424403203615606555e-100
2.437973325692176646215856e-101
2.277140023447665386669879e-102
2.095274468974082116680192e-103
1.89952762692756488260013e-104
1.696911489051767636762992e-105
1.493930259739448907462295e-106
1.296289040207305566810122e-107
1.108693407197273557168959e-108
9.347432321225834946025984e-110
7.769150883661148230138576e-111
6.366205216669985519991999e-112
5.143228113218204929722073e-113
4.0969274553976180491888e-114
3.217841556775160602369473e-115
2.492120387816116064398219e-116
1.903194461753835706544241e-117
1.43323297661154208997691e-118
1.064333251554646745816036e-119
7.794200584937251638190067e-121
5.628631445065358832582071e-122
4.008426173372507911550924e-123
2.815048164309982380301905e-124
1.949567153638041289165857e-125
1.331463217546061976992061e-126
8.967174047028856908956426e-128
5.955428960119158448574393e-129
3.900280699344298277578961e-130
2.518820393279208001386989e-131
1.604017358492950886880366e-132
1.007215356317855233304064e-133
6.23629742479833319928103e-135
3.80724859683017203783145e-136
2.291729041530338083682131e-137
1.360096033128701110290998e-138
7.9582173338677620255248e-140
4.590781002013838147384325e-141
2.610751699269638482639542e-142
1.463643972777931511586679e-143
8.088684771660138124962598e-145
4.406296122278470109486662e-146
2.365933386088824675689232e-147
1.252112044288108707183463e-148
6.530907535847428810445237e-150
3.357147146668044131393413e-151
1.700628989038333403577168e-152
8.489185209537787995614479e-154
4.175548635787086635657795e-155
2.023601828939999654936721e-156
9.662119718025303944608267e-158
4.544921915700673750701056e-159
2.10599279917617741575562e-160
9.612414829732528433956558e-162
4.321364910118255332455524e-163
1.91332497700139009766835e-164
8.342598392823278729346307e-166
3.581978910754514953800826e-167
1.51431747145320817560008e-168
6.30296658500816656742841e-170
2.582664334333720755991261e-171
1.041706308512182305906246e-172
4.13556827813289974640378e-174
1.615825889879004866215153e-175
6.212679422435626753585461e-177
2.350403951924404553677355e-178
8.748588747379107375354747e-180
3.203440836848796274971398e-181
1.153794338848209814077993e-182
4.087156947862576439221957e-184
1.423777300347044592029452e-185
4.876807597706952201153271e-187
1.642272605306405562963938e-188
5.436412969335418453477545e-190
1.768792405337628581148664e-191
5.655568944163691162139374e-193
1.776832817243833251339243e-194
5.484303110083343162040278e-196
1.662771721427550927049639e-197
4.951190092128780493610197e-199
1.44770336062527150016769e-200
4.155922442646319289245665e-202
1.171104248741167263129393e-203
3.238797477122031706200068e-205
8.789199423872308026881432e-207
2.339949764012435718657425e-208
6.110361950658438383968707e-210
1.564728522117691104881986e-211
3.928511500324107044297825e-213
9.667986290730537224219019e-215
2.331640162866692357665461e-216
5.509338338585946521986407e-218
1.275090128531763118444057e-219
2.889834454056411897732265e-221
6.411780052672732774942494e-223
1.392311346903733532677644e-224
2.958149339305945155525598e-226
6.147504075490813366952248e-228
1.249212784818572018025206e-229
2.481368809462272705183025e-231
4.816329888159883191917952e-233
9.131829223506750527918601e-235
1.690659717512691575430001e-236
3.055237055117033554404298e-238
5.387038717893160705792805e-240
9.263823604548181042719581e-242
1.553015559842471554560061e-243
2.536929172800756261704796e-245
4.036270443997960667129656e-247
6.251352805466423500725218e-249
9.420228614971781730321362e-251
1.380393878426451347117984e-252
1.965834759442213387350549e-254
2.71912087782608426008471e-256
3.650635707479365911930884e-258
4.754147284715458424512948e-260
6.001088820382711517213721e-262
7.336889361335836268144467e-264
8.681006824791101602645949e-266
9.931959281232343643954832e-268
1.097776120767572948641343e-269
1.171085413582785195237525e-271
1.204518168362597858662886e-273
1.193195123130166887761026e-275
1.137031032710718480804806e-277
1.040992659091567313875657e-279
9.144235258876294825513226e-282
7.695459305154138114880593e-284
6.194690888074332121696876e-286
4.761611162739569874792788e-288
3.488361693911567345078657e-290
2.430692161057747402358929e-292
1.607308106792491524246185e-294
1.006115087486576042257451e-296
5.945337613984615311345967e-299
3.30635034077479316259802e-301
1.724506961668946237393579e-303
8.402926128846898119131706e-306
3.808173027979701352327651e-308
1.59700897138344692976155e-310
6.160707895414331416415219e-313
2.171023260955605564420679e-315
6.936681667611101480239026e-318
1.976262583364986176706275e-320
0
0
0
0
0
0
0
0
0
0
0
0
0
0
0
0
0
0
0
0
0
0
0
0
0
0
0
0
0
0
0
0
0
0
0
0
0
0
0
0
0
0
0
0
0
0
0
0
0
0
0
0
0
0
0
0
0
0
0
0
0
0
0
0
0
0
0
0
0
0
0
0
0
0
0
0
0
0
0
0
0
0
0
0
-3.544227355719494979405959e-32
-1.080146031031180491415115e-30
-1.640126392886790786106302e-29
-1.654368527840588072822812e-28
-1.24706003292206653047143e-27
-7.493057304259821999222974e-27
-3.738212967315738113818046e-26
-1.592666997153760183263182e-25
-5.915415401993773507617711e-25
-1.945687822786917853695707e-24
-5.738165381852922082179368e-24
-1.532637754780476461911375e-23
-3.738237802568632140173088e-23
-8.384410482609796750675945e-23
-8.582149117137689053360055e-23
-8.745559454732610838937687e-23
-8.871464277952883750643297e-23
-8.957068716854995944055766e-23
-9.000044469159036220732738e-23
-8.998608644340007856220421e-23
-8.951594155112088979783771e-23
-8.858508573162370471042027e-23
-8.719578499700499832652346e-23
-8.535776787726387328119499e-23
-8.308830396815559055972057e-23
-8.041207258655091585979055e-23
-7.736081268351638308217382e-23
-7.397275367732922689930317e-23
-7.029183616916445327745966e-23
-6.636674114164948349964687e-23
-6.224975568735311322690921e-23
-5.799551199616481535361214e-23
-5.365964366403986451077786e-23
-4.92974088220195050210846e-23
-4.496233265654390815406915e-23
-4.070492225960481137257471e-23
-3.657150423660287786349367e-23
-3.260323013284098693941321e-23
-2.883528674804038281764469e-23
-2.529633822926275921066369e-23
-2.200821508521283238007294e-23
-1.898585270716604509656122e-23
-1.623746945199871694892006e-23
-1.376496268945399131009792e-23
-1.156449122343268361416126e-23
-9.627204816079914905823134e-24
-7.940076631181774278300419e-24
-6.486792494585180876610493e-24
-5.248651919494078532435711e-24
-4.205439599271360471435665e-24
-3.336232059426349537709068e-24
-2.620111761528040216565471e-24
-2.036769458157241212362853e-24
-1.566984291164033664983244e-24
-1.192979343866741278964243e-24
-8.986575540653637058562402e-25
-6.697286754784366424310318e-25
-4.937421202138360196811405e-25
-3.600429753972988820167954e-25
-2.596693659688557075306492e-25
-1.852088539888365059672484e-25
-1.306300208001037695181765e-25
-9.110310483882586210546973e-26
-6.282089325713900173973087e-26
-4.282828299127908281357095e-26
-2.886627335738182641813426e-26
-1.923379783461104579763361e-26
-1.266884994901856978924831e-26
-8.248848694645682933540968e-27
-5.309114959833937148472801e-27
-3.3776487953539589778333e-27
-2.124043503206661469320912e-27
-1.320272890073618635467479e-27
-8.111698530785069106299385e-28
-4.426070256956440415700048e-28
-2.326961544116524117026418e-28
-1.18067960077238397767245e-28
-5.789991384565929408995209e-29
-2.747841971328745794709467e-29
-1.263517105181572936613239e-29
-5.635124158601117162812187e-30
-2.439902210221756607246277e-30
-1.026509520971506297359462e-30
-4.199681648062203167501315e-31
-1.672029621865005163043732e-31
-6.482326131244421292716772e-32
-2.448719437470210642178721e-32
-9.017992918618140300371824e-33
-3.239416909197438340924832e-33
-1.135578785439847862481565e-33
-3.886461327953146422027946e-34
-1.299148068295071203551776e-34
-4.243258541881310507077292e-35
-1.354678180910848835545807e-35
-4.22881609552060264452206e-36
-1.291188205221362102662375e-36
-3.857296849051893511562981e-37
-1.12778746842302622068077e-37
-3.228077107696042494534346e-38
-9.047925266242444216641366e-39
-2.484009858638284219315129e-39
-6.681325274807525629390179e-40
-1.761075739890014264318221e-40
-4.549841791102812849485284e-41
-1.152417726448900231705235e-41
-2.862249280462632052902719e-42
-6.972259154463295711502604e-43
-1.666053854263454362037968e-43
-3.905991177505365893666907e-44
-8.986154403267921756313229e-45
-2.029023429464097100511485e-45
-4.497151326794170440786252e-46
-9.785621497127071917845335e-47
-2.090737648142458978833306e-47
-4.386590757148428574265433e-48
-9.039071826483553466002786e-49
-1.829526698229192427721093e-49
-3.637618821052822264758516e-50
-7.105597623954028953010656e-51
-1.363723891426961661244778e-51
-2.571744924690411030649117e-52
-4.765775977419406090301096e-53
-8.678956548706439991770883e-54
-1.553274546608980722385244e-54
-2.732050651376809841047143e-55
-4.722759367666253040119303e-56
-8.023599296036244844511234e-57
-1.339679686119188539831511e-57
-2.198235209628613000364831e-58
-3.544555158029408694988362e-59
-5.615970812125944711615391e-60
-8.741998550138300412585223e-61
-1.336749953858432476485356e-61
-2.007493342055295053233628e-62
-2.960119576452083303528268e-63
-4.284225843735315630495245e-64
-6.083626067288281019949331e-65
-8.471311865953057632545548e-66
-1.155966012895574022448807e-66
-1.544438056578674278990738e-67
-2.018078454257669878556861e-68
-2.575131790109331144590877e-69
-3.202401026265456610621203e-70
-3.870259799536708621591309e-71
-4.5270573071180051142254e-72
-5.093321842602710316964098e-73
-5.456364701781655880606676e-74
-5.466070965265747135514839e-75
-4.932804088863949900110606e-76
-3.628409450781957660392593e-77
-1.291241348660660562114813e-78
2.364069982368290450671963e-79
7.631762379728715290664113e-80
1.479516480428810072858664e-80
2.410279628472864391121181e-81
3.574181346856261049998298e-82
4.981091495070157106949762e-83
6.629530573097610051710058e-84
8.504658225346393208847826e-85
1.057703387065668630670618e-85
1.280238752872975986305664e-86
1.512256138301181461672436e-87
1.746767546290987062580353e-88
1.975944508780705774846254e-89
2.191544835911941848522012e-90
2.385402588767576595261436e-91
2.549940835885882801523429e-92
2.678662350696867231310954e-93
2.766574020606381790287243e-94
2.810506447478720605114983e-95
2.809300389269087821636409e-96
2.763845062489762090003599e-97
2.676968197244747656611298e-98
2.553192235645805153968752e-99
2.398383421208036388819483e-100
2.219329334630994006361305e-101
2.023284834109655180549231e-102
1.817526140811601969388997e-103
1.608948382088222898653009e-104
1.40373418894601684298614e-105
1.207111195134366095407364e-106
1.023205877103880240862288e-107
8.549913941487061783217123e-109
7.043189688455953944727272e-110
5.720165613645588485529187e-111
4.580354117342658833307764e-112
3.616243563565673553925486e-113
2.815132812522815465432959e-114
2.160900806211475409351331e-115
1.635593977486088800786207e-116
1.220756158102714103581963e-117
8.984652133754268876947664e-119
6.520741287512848509047975e-120
4.666796211247550609543124e-121
3.293579312253171746222563e-122
2.292158418294430994097532e-123
1.57306526335957558899551e-124
1.064563362542799601083503e-125
7.104192582812053511994945e-127
4.674884742737378492156465e-128
3.033425992282026350894875e-129
1.940860841216903280689506e-130
1.224460979759893947981805e-131
7.616843340499087466602374e-133
4.671684547412859816265037e-134
2.825063733467721196703426e-135
1.684325614928891044724168e-136
9.900399335691986724129939e-138
5.737107869794159307574663e-139
3.277409879745192552365428e-140
1.845647468701560318116619e-141
1.02453977921353076726362e-142
5.605983765083373966225437e-144
3.023414319870923643154504e-145
1.607108599102349108533261e-146
8.419231443498561551643466e-148
4.346666235777638595088601e-149
2.211427649212470671563217e-150
1.108655864050106483592733e-151
5.476490658116105413346599e-153
2.665400617289953222016006e-154
1.278053838254947668758909e-155
6.037167798843433167292313e-157
2.809213023067201842466166e-158
1.287574155724483012452737e-159
5.812510159193613901310369e-161
2.584197735821862507912208e-162
1.131419940438434474950068e-163
4.877781840249432351468299e-165
2.0705446256702328184876e-166
8.653116038187338929551444e-168
3.559975288270946756887819e-169
1.441675533954156157829981e-170
5.746354975747186102318358e-172
2.254128796779436813005748e-173
8.701256854828586282673131e-175
3.30488600074036464597457e-176
1.234966099915404991549219e-177
4.539719389926958840375156e-179
1.641452257278446358122998e-180
5.837152984385246109894948e-182
2.041240453837993797341051e-183
7.018633590773281899502327e-185
2.372573199307132904810972e-186
7.88382329810506797532954e-188
2.574803513384299167094282e-189
8.263786718770488315780174e-191
2.606020260164998253719499e-192
8.073726065236547910457349e-194
2.456968068173546948683019e-195
7.343174543510847899914782e-197
2.155034915876182022873782e-198
6.209202331675068513457579e-200
1.756106361454462027950895e-201
4.874378240998417063410598e-203
1.327572597012708305574682e-204
3.547173502635300726696842e-206
9.296152501337560723224306e-208
2.389071962774967231993621e-209
6.01957419136993040221709e-211
1.48667115139258623850422e-212
3.598116748471689993049929e-214
8.531821201459461724345328e-216
1.98155238889746589902717e-217
4.506650315935523685812685e-219
1.003389685908736627372308e-220
2.186409208284969689340187e-222
4.661366468951645602743109e-224
9.720399017569813109041214e-226
1.982019388138744136424957e-227
3.950418904978236933517715e-229
7.693830277570060602651435e-231
1.463702913812221541499864e-232
2.719032655873760349088797e-234
4.930154394712309112706486e-236
8.722027750759538083468813e-238
1.504886750687519083059617e-239
2.531220509834287283681948e-241
4.148562607446078249335147e-243
6.62215341640427504405716e-245
1.02900443631032707719615e-246
1.555691794755051791253622e-248
2.287065950414796433190652e-250
3.267615308089617555104589e-252
4.534353945928706490578601e-254
6.107355108890245240095404e-256
7.979026331439191728010707e-258
1.010403328311547198056118e-259
1.239250275464968776734934e-261
1.470938184187130308425822e-263
1.688229522451025625632791e-265
1.871878158005197988295827e-267
2.003155398069050253630403e-269
2.066791983893065898578261e-271
2.053748838481893670130032e-273
1.96316030906927927432856e-275
1.802909266521878177264478e-277
1.588589016586360228683786e-279
1.341009662960285214987953e-281
1.082793066178725006192468e-283
8.348405146951667873149684e-286
6.134655679420551013971737e-288
4.287588506026536652198167e-290
2.8437546093353641093072e-292
1.785442671518109334343837e-294
1.058218831144252965483095e-296
5.902609164277483620404055e-299
3.087818834431868109012112e-301
1.509053520735753575903552e-303
6.859201652312001896656461e-306
2.884978928361248733685713e-308
1.116194593233957476508725e-310
3.944975843661518106217532e-313
1.26316775540939821456535e-315
3.616560527557924703372484e-318
0
0
0
0
0
0
0
0
0
0
0
0
0
0
0
0
0
0
0
0
0
0
0
0
0
0
0
0
0
0
0
0
0
0
0
0
0
0
0
0
0
0
0
0
0
0
0
0
0
0
0
0
0
0
0
0
0
0
0
0
0
0
0
0
0
0
0
0
0
0
0
0
0
0
0
0
0
0
0
0
0
0
0
0
-4.675887494502880042191072e-34
-5.562329266953224256672807e-31
-1.667872272379722222013863e-29
-2.512789915230267971117924e-28
-2.519900412932381261967758e-27
-1.889826929813871760535209e-26
-1.13005456113688446343652e-25
-5.611125038431094652452249e-25
-2.379326485536983709969441e-24
-8.794891569673018470485019e-24
-2.878669841805774969452969e-23
-8.447176649056494794132865e-23
-2.244586068426856874010549e-22
-5.445708156476532251173239e-22
-1.214727075071828018134773e-21
-1.263350677871739189404213e-21
-1.307476609221949810025814e-21
-1.346359217527111125531644e-21
-1.37928929254851982029795e-21
-1.405612983215872652692805e-21
-1.424750846436104022695646e-21
-1.436216370018959369154598e-21
-1.439633258503857537427274e-21
-1.434750744176727459938231e-21
-1.421456192421586390023999e-21
-1.399784314995295500467104e-21
-1.369922389275049779561485e-21
-1.3322110061435272699179e-21
-1.287140031405312343500609e-21
-1.235339660024576741192633e-21
-1.177566660666036819846618e-21
-1.114686138944633727968164e-21
-1.047649378189171281952662e-21
-9.774685317357401009122133e-22
-9.051891257277134290542819e-22
-8.318614718520691792126959e-22
-7.585121732037870827882961e-22
-6.861169246732553094896381e-22
-6.155757574017642978100021e-22
-5.47691755579237591657332e-22
-4.831540892467326015743875e-22
-4.225259701550656735236822e-22
-3.662378649951568496771691e-22
-3.145860106314794188952257e-22
-2.677359901754563814040544e-22
-2.257308674482707980699029e-22
-1.885031590721875206606138e-22
-1.558897626769293636880336e-22
-1.276488658508417730364651e-22
-1.034778368120505896676301e-22
-8.30311414635045301201122e-23
-6.593743404408168716778525e-23
-5.181511701903972816596262e-23
-4.028584426785727850685839e-23
-3.098563299865454901879648e-23
-2.357343777823027254361792e-23
-1.773721046560431123745001e-23
-1.319761190096224402807251e-23
-9.709648184079424264329788e-24
-7.062573676955100429294929e-24
-5.078435671200916729745074e-24
-3.609636213484222017817071e-24
-2.53586122246536604904878e-24
-1.760683171077531375169868e-24
-1.208088777175079255564584e-24
-8.191242060802863305492724e-25
-5.487928927031749762616774e-25
-3.632893914341685220769636e-25
-2.376092569843424507432911e-25
-1.535410237362684017887881e-25
-9.802189336495968922748489e-26
-6.182292061244866027484169e-26
-3.852094173259715699312726e-26
-2.371162218191520653358053e-26
-1.441920869101217530470418e-26
-7.631145607075742955827703e-27
-3.890950396860464038241161e-27
-1.914548380884612281265027e-27
-9.104956428683146080411367e-28
-4.190680968546976162769198e-28
-1.86907334591035900097424e-28
-8.087130789265603457642342e-29
-3.398106247432920926901619e-29
-1.387914586222882456614989e-29
-5.514999169592654588925987e-30
-2.133667253443054451645511e-30
-8.043016769622203276239532e-31
-2.956026774370378918756296e-31
-1.059880461777696977188327e-31
-3.709409182450855425703137e-32
-1.267863047085067355170493e-32
-4.234110590695129990840957e-33
-1.382167390663610681254022e-33
-4.412040167792509994462348e-34
-1.377708469190610499200485e-34
-4.209797358317932378639158e-35
-1.259178954882398557510988e-35
-3.687763888168872541696478e-36
-1.057807609857046621054512e-36
-2.972550064938754691486509e-37
-8.18530328369547952117635e-38
-2.20913149984156668256191e-38
-5.844967848140047743847117e-39
-1.516365908058205608231631e-39
-3.858070944557991571284554e-40
-9.628519078451574226100523e-41
-2.357473068420216470042757e-41
-5.663738067726893936952501e-42
-1.335354328617620878534114e-42
-3.090233394304960821327089e-43
-7.02018788272896151925051e-44
-1.565766756363834794078026e-44
-3.429109982057882538303472e-45
-7.375031376257481954128444e-46
-1.557842280184855985713414e-46
-3.232259375808836218663934e-47
-6.588018303643865700362238e-48
-1.319194272036467583629828e-48
-2.595399102201515280622399e-49
-5.017338930168017141863609e-50
-9.531149052539564716483299e-51
-1.779279414180710319518399e-51
-3.264301229660053701508783e-52
-5.885708787778058479374338e-53
-1.04298907418182583658541e-53
-1.816507885906104067333246e-54
-3.109344606784621355775992e-55
-5.230756682326780585811764e-56
-8.64780359952387208586186e-57
-1.404961742527893628688309e-57
-2.242853388536077587647234e-58
-3.517724786412301444371029e-59
-5.419737941015345699872985e-60
-8.200904279134201279009556e-61
-1.218429023399490959811388e-61
-1.776857563809026479755856e-62
-2.542383673037345231829898e-63
-3.567311763030687302677525e-64
-4.905316687618814856246781e-65
-6.604693660563052950916065e-66
-8.698044073415950921857499e-67
-1.118777641353324518284327e-67
-1.402708155487933345303476e-68
-1.709651319850791122862047e-69
-2.017697732754594440887871e-70
-2.292078718765047121750532e-71
-2.482340872033292889143055e-72
-2.519949515680842403004202e-73