# geometry NO_DATA 388
#  x  y  z
4.283904059325630342414115 0.01534929958074195306683141 2.282103923798074252005108
4.291952029662814638300006 0.03258669223970602629725235 2.290063936584593839995705
4.291952029662814638300006 -0.001888093078222121247791709 2.290063936584593839995705
4.289265034355425498802106 -0.002830201691147094054251676 2.292095236046574502353224
4.281489663107851839640716 0.01469360373533425308256728 2.284190472093148294163711
4.289265034355426386980525 0.03221740916181559805098189 2.292095236046574502353224
4.283229342534230710271004 -0.01747224892204216756264046 2.282658616541933582766433
4.29168010399910215824093 -0.03390405932563074486996157 2.290450694463843639425704
4.282515410158174162802425 -0.01775866168955943930063412 2.283372548917989686145802
4.28997964015738020293611 -0.03419047209314801660795524 2.291823310382862466383358
4.282515410158174162802425 0.01775866168955943930063412 2.283372548917989242056592
4.28997964015738020293611 0.03419047209314801660795524 2.291823310382862022294148
4.283229342534229822092584 0.01747224892204216756264046 2.282658616541933582766433
4.29168010399910215824093 0.03390405932563074486996157 2.290450694463844083514914
4.275453297860757118087349 -0.0002348562630780925974960383 2.274311845876163751256627
4.275050506733069966003313 0.0005707259922974052771676989 2.274479780740773282587952
4.274336574357013418534734 0.000857138759814677882523104 2.275193713116829385967321
4.274025433108644911328611 -0.0002348562630780925974960383 2.275739710628275958015365
4.3357640831368549072522 0.01180516705962389618911335 2.278471833726290363131284
4.342882041568427275990416 0.03090258352981190004271639 2.28558979215786317595871
4.342882041568427275990416 -0.007292249410564098990872317 2.28558979215786317595871
4.333517023996730443968772 -0.01978520596243015655657516 2.281086274193209195715326
4.342194252076184923794244 -0.03576408313685466161535587 2.287332752469142249651668
4.323968315761636205252216 -0.03402112282557548383898904 2.289976298885341154942807
4.323968315761636205252216 0.03402112282557549077788295 2.289976298885341154942807
4.333517023996730443968772 0.0197852059624301530871282 2.281086274193209639804536
4.342194252076184923794244 0.03576408313685466855424977 2.287332752469142693740878
4.327086855057400427426728 -0.0006877894922421589913447137 2.272225355450357753284152
4.325527585409518316339472 0.002430749803521334382466756 2.273096835605997512175236
4.315978877174424077622916 0.01534929958074195480155488 2.281986860298129027313507
4.307989438587211949993616 0.03270375573965077914406763 2.290005404834621671739114
4.307989438587211949993616 -0.002005156578166871275681338 2.290005404834621671739114
4.39105887279610307416533 0.001215587741125912337250559 2.267882254407792785855236
4.395529436398051714718349 0.02560779387056281997114837 2.272352818009740982319045
4.395529436398051714718349 -0.02317661838831099399560465 2.272352818009740982319045
4.383549978359435606023453 -0.02682295593295822358492764 2.275824438896666634946087
4.393098686594529844740009 -0.04105887279610357515347019 2.277647607668990215046279
4.3713538752947176391217 -0.03576408313685464079867415 2.28558979215786362004792
4.3713538752947176391217 0.03576408313685464079867415 2.28558979215786362004792
4.383549978359435606023453 0.02682295593295821317658678 2.275824438896666634946087
4.393098686594529844740009 0.04105887279610357515347019 2.277647607668989770957069
4.381510164561008835448774 -0.002430749803521318336274604 2.266059085635469649844254
4.376432019927863237285237 0.007725539462770230139665451 2.268706480465093822118661
4.364235916863145270383484 0.01180516705962389098494292 2.278471833726290363131284
4.357117958431572901645268 0.03090258352981187228714077 2.28558979215786317595871
4.357117958431572901645268 -0.007292249410564077306828867 2.28558979215786317595871
4.435483236720726196722353 0.0123668598918804488462353 2.279033526558547073648242
4.442741618360362743089809 0.0311834299459402275456199 2.286291908198184064104908
4.442741618360362743089809 -0.006449710162179329853149312 2.286291908198184064104908
4.422819975832873673482482 -0.02654210951683006261547781 2.270670072445480691669673
4.435016078897592528562654 -0.03548323672072644513475481 2.280716272122806476119194
4.413411690805844500573585 -0.04105887279610362372572752 2.272352818009740538229835
4.413411690805844500573585 0.04105887279610361678683361 2.272352818009740538229835
4.422819975832872785304062 0.02654210951683005914603086 2.270670072445481135758882
4.435016078897592528562654 0.03548323672072644513475481 2.280716272122806920208404
4.42328713365600645346376 -0.007725539462770283916093206 2.26898732688122173328793
4.418349412230925032929463 0.002149903387393108794567453 2.266199508843532939295073
4.408941127203895860020566 0.001215587741125915806697511 2.267882254407792785855236
4.404470563601947219467547 0.0256077938705628685434057 2.272352818009740982319045
4.404470563601948107645967 -0.02317661838831103562896807 2.272352818009740538229835
4.484019661841294634996302 0.01529411647574688455641923 2.281960729729911818708388
4.492009830920647317498151 0.03264711165037532947241772 2.289950952221766034000439
4.492009830920647317498151 -0.002058878698881562961664482 2.289950952221766034000439
4.480451794496831396941161 -0.01950289856202155891473637 2.279765465988870865032823
4.489860079523861458028478 -0.03401966184129510961664522 2.288487475920441216459267
4.471775296909518360166658 -0.03548323672072643819586091 2.286292060188792163444305
4.471775296909518360166658 0.03548323672072643819586091 2.286292060188792163444305
4.480451794496831396941161 0.01950289856202155197584247 2.279765465988870865032823
4.489860079523861458028478 0.03401966184129510961664522 2.288487475920440772370057
4.474611376814264573908986 -0.002149903387393109661929191 2.273238719798341911371153
4.473193260866587195323518 0.0006863285079617824921763281 2.27250693235862621932597
4.464516763279272382192175 0.0123668598918804488462353 2.279033526558547073648242
4.45725838163963672400314 0.0311834299459402275456199 2.286291908198184064104908
4.45725838163963672400314 -0.006449710162179329853149312 2.286291908198184064104908
4.525969130713157539958047 0.001335162520473928042877287 2.275366031807316335999758
4.526485937246933488609102 -0.0003015494529201775139939934 2.276184387794013552763772
4.519337290862545764014158 -0.01399574331585645703412979 2.284668495853806824413823
4.511671837944380314411319 -0.03199757250299704175455773 2.29233424792690332338907
4.511671837944380314411319 0.004006085871284131155745101 2.29233424792690332338907
4.525475298558791159564407 -0.002322826829205994723925865 2.275173749105870335540658
4.516991190498997887914356 -0.01868794404295247985059447 2.282971582070204341619046
4.510336376268975655534632 -0.03466849585380725462524509 2.291647972831443613728197
4.516991190498996999735937 0.01868794404295247985059447 2.282971582070204341619046
4.510336376268974767356212 0.03466849585380725462524509 2.291647972831443613728197
4.525475298558791159564407 0.0023228268292060012291389 2.275173749105871223719078
4.524958492025014322734933 -0.0006861148558118888417939329 2.274355393119173562865853
4.524464659870648830519713 0.00030154945292018434446768 2.274163110417728006495963
4.515980551810855558869662 0.0152941164757468862911427 2.281960943382062012574352
4.507990275905427779434831 0.03264689799822544091778553 2.289951059047841130933421
4.507990275905427779434831 -0.002058665046731671804947084 2.289951059047841130933421
4.249305469252924183365394 0.04817782454212446441310647 2.348872355289199465033789
4.248610938505849254909208 -0.01666666666666666296592325 2.348394381523986496063117
4.249305469252924183365394 0.01484449120879113154236606 2.348872355289199465033789
4.248516518760522941988711 0.01647782717601311772148698 2.34861093850584889963784
4.2491166297622715575244 -0.01546644466316954985574128 2.349305469252924272183236
4.2491166297622715575244 0.04842209901519578529871524 2.349305469252924272183236
4.24925244098017795835176 -0.04861093850584933401259846 2.349035883998315199505669
4.249158021234850757252843 -0.04861093850584933401259846 2.349252440980177603080392
4.249158021234850757252843 0.04861093850584933401259846 2.349252440980177603080392
4.24925244098017707017334 0.04861093850584933401259846 2.349035883998315199505669
4.289136345736400457440141 -0.03436252630973297972349911 2.323456210535400856542765
4.273456210535400146000029 -0.03436252630973297278460521 2.339906320220204172244394
4.273456210535400146000029 0.03436252630973297278460521 2.339906320220204172244394
4.289136345736400457440141 0.03436252630973297278460521 2.323456210535400856542765
4.289179007247133412761286 -0.003002255907732055001391203 2.307818736845133944513009
4.281317608891266779380658 0.0146936037353342513478438 2.315637473690267178483282
4.289179007247133412761286 0.03238946337840055422763186 2.307818736845133944513009
4.265637473690266467940546 0.0162335527029417898969843 2.332087583375070938274121
4.257818736845132789881063 0.03392941234600808930732541 2.340718956214741464094686
4.257818736845132789881063 -0.001462306940124510814399406 2.340718956214741908183896
4.534668894724455334710456 0.01401052458702781514099378 2.330669700902392449393119
4.542334447362227578537386 0.03201275264481565074881075 2.338342743891467012673502
4.542334447362227578537386 -0.00399170347076002133418493 2.338342743891467012673502
4.52700324237096651813772 -0.03466889472445450204318718 2.323004148264619761476979
4.52700324237096651813772 0.03466889472445450204318718 2.323004148264619761476979
4.519337689733193386132371 -0.0166666666666666664353702 2.315331105275545198196596
4.511672037379704569559635 -0.02932684859140195082760627 2.307665552637772510280456
4.511672037379704569559635 0.004006484741931379441048922 2.307665552637772510280456
4.575603316015870447586167 0.0006247656750144785567369077 2.325021449659144590071946
4.575770232264196657467892 -0.0002909331783624040574688652 2.325479299085833062576967
4.567927458564600584622895 -0.01539461422082912672726351 2.333958099008347275571396
4.559917768616678301896172 -0.03268604656251026391311498 2.341979049504173460150014
4.559917768616678301896172 0.001896818120852014144875342 2.341979049504173460150014
4.574805071423425850696276 -0.002221254859903805910226193 2.324514138245062255805351
4.566326271500910749523428 -0.01859698834820806834233764 2.331664867127757556630741
4.559281742393759273568321 -0.03395809900834780015177472 2.340650978464354103891765
4.566326271500910749523428 0.01859698834820806140344374 2.331664867127757112541531
4.559281742393759273568321 0.03395809900834780015177472 2.340650978464354103891765
4.574805071423425850696276 0.002221254859903807644949669 2.324514138245062255805351
4.574638155175099640814551 -0.001305556006526923350230529 2.324056288818373783300331
4.57383991058265504392466 0.0002909331783624061716631015 2.323548977404291449033735
4.565361110660139942751812 0.01401052458702781861044073 2.330699706286986749859125
4.557680555330070326647274 0.03198274726022140579395625 2.3383577465837639408619
4.557680555330070326647274 -0.003961698086165772909883476 2.3383577465837639408619
4.239474845493665711160247 -0.002630185407600282247037038 2.392105030901266804477245
4.231579876394932604455335 0.01491320972826646815145857 2.384210061802533253683123
4.239474845493665711160247 0.03245660486413321638154983 2.392105030901266804477245
4.240879857337088942870196 -0.03379492638950058053248782 2.374307610415749003607289
4.232202579514481755040833 -0.01800498819203399936128562 2.383079307983682504357148
4.23988998090669877427672 -0.03421006180253342160435537 2.391643437845099473548771
4.232202579514481755040833 0.01800498819203399936128562 2.383079307983682504357148
4.2398899809066978860983 0.03421006180253341466546146 2.391643437845099473548771
4.240879857337088942870196 0.03379492638950058053248782 2.374307610415749003607289
4.241247030647929960878173 -0.0006504325468207945324869423 2.358102536805249727080991
4.232777320531838860517837 0.01647782717601311772148698 2.36620507361049980943335
4.241247030647929960878173 0.03360608689884703181860459 2.358102536805249727080991
4.224100042709231672688475 0.0008767284692000800599975818 2.374976771178432866093999
4.223892475002715585219448 -0.000461593056167249017000126 2.37564593194111672858071
4.576470357410253875229955 0.001661162367128271458507904 2.375190804956876622355821
4.576981050480473989239272 -0.0006397762266880524387527296 2.376341274253784607850548
4.569988991400924405184014 -0.01334434193241004762420232 2.384994495700461403231429
4.56248623925115470711944 -0.03167217096620498356651652 2.392497247850230657206794
4.56248623925115470711944 0.004983487101384883113941449 2.392497247850230657206794
4.56946917865748503118084 -0.01896760526048298783896584 2.368829402430796093881327
4.560941290363505373761654 -0.03397310956002138476739205 2.359665487913898296312709
4.562477119577935447125583 -0.03499449570046159196934354 2.377482623877473333351418
4.562477119577935447125583 0.03499449570046159890823745 2.377482623877472889262208
4.568453162186495219998505 0.01896760526048299477785974 2.367177359736886366192721
4.561451983433725487770971 0.03499449570046159890823745 2.360815957210805837718226
4.567942469116275105989189 -0.01666666666666666296592325 2.366026890439978380697994
4.55992527389251556257932 -0.03142150466080773085764122 2.358013445219989012713313
4.55992527389251556257932 0.001911828672525595074205285 2.358013445219989012713313
4.2372707941766316608323 -0.005275046988041675634362182 2.442545841164673880996361
4.229816635341305364192976 0.01314996867463888094440527 2.435091682329347584357038
4.2372707941766316608323 0.03157498433731943665581099 2.442545841164673880996361
4.239474845493665711160247 -0.03421006180253341466546146 2.423684907296200563564526
4.231139066131525794389745 -0.01930174413188063750612677 2.432897415127540430290765
4.238152414703445280963479 -0.03509168232934721520788202 2.441669112695473931040624
4.231139066131525794389745 0.01930174413188063750612677 2.432897415127540430290765
4.238152414703444392785059 0.03509168232934722214677592 2.441669112695473486951414
4.239474845493665711160247 0.03421006180253341466546146 2.423684907296199675386106
4.239474845493665711160247 -0.002630185407600282247037038 2.407894969098733461976281
4.231579876394932604455335 0.01491320972826646815145857 2.415789938197467012770403
4.239474845493665711160247 0.03245660486413321638154983 2.407894969098733461976281
4.223244097032791799506413 0.001758348996013892311801596 2.425002446028806879496642
4.222803286769384989440823 -0.0008767284692000814694604061 2.426319984761414083607178
4.578741272126391592678374 0.004160219518526121068591195 2.425418947392135482488129
4.579990800702090858464999 -0.001661162367128227223059267 2.428329638334962403689588
4.574987105703725021044193 -0.008346227629603381048539745 2.437493552851860201258205
4.568733882129660806015181 -0.02917311381479614773581943 2.443746776425930633536154
4.568733882129659917836761 0.0124806585555893526789939 2.443746776425930189446944
4.573737577128020426187049 -0.0224880485523209841525194 2.422076414760891971411638
4.56498529640255235051427 -0.03499449570046158503044964 2.411662971668295796234815
4.568733882129654588766243 -0.03749355285185939495873342 2.431240329277789768980256
4.568733882129654588766243 0.03749355285185942965320294 2.431240329277789768980256
4.571238519976622782792219 0.02248804855232103966367063 2.417916195242366228512765
4.566234824978250728122475 0.03749355285185942271430903 2.414573662611122717436274
4.569988991400923517005594 -0.01666666666666663521034764 2.415005504299538863222097
4.56248623925115381894102 -0.02834984623194843414428767 2.407502752149769609246732
4.56248623925115381894102 0.00498348710138489525700578 2.407502752149769609246732
4.236814040012053084183208 -0.005823151985536905057838641 2.492637191997589596326179
4.229451232009641792330967 0.01278456534297537500188824 2.485274383995179192652358
4.236814040012052196004788 0.03139228267148767848038204 2.492637191997589596326179
4.2372707941766316608323 -0.03509168232934720133009421 2.472362476505979067553653
4.229725284508388583049054 -0.02036606632452617887674151 2.481666335170235271334604
4.236996741677883093757373 -0.03527438399517897338331096 2.490878843001575582150053
4.229725284508388583049054 0.02036606632452612336559028 2.481666335170235271334604
4.236996741677884870114212 0.03527438399517893868884144 2.490878843001575582150053
4.2372707941766316608323 0.03509168232934717357451859 2.472362476505979067553653
4.2372707941766316608323 -0.00527504698804165481768047 2.457454158835326474275007
4.229816635341305364192976 0.01314996867463885839300008 2.46490831767065277091433
4.2372707941766316608323 0.03157498433731939502244757 2.457454158835326474275007
4.222271125673062286409731 0.001941050661845586952983234 2.474212176334908974695281
4.222179774840147281622649 -0.001758348996013902286461583 2.4760618761638384377477
4.580455476822386629009998 0.002590514607675525275004569 2.472135037785289313205794
4.579670624366950271166843 -0.004160219518548349815212362 2.475510404848401346811215
4.571847695882008011381004 -0.01148563745133667282627421 2.485923847941008624218284
4.564809619852501221259899 -0.03074281872567887277658549 2.492961923970504312109142
4.564809619852502109438319 0.007771543823005541869186619 2.492961923970504312109142
4.572632548337442592867319 -0.0234174007928905532349706 2.468472328818894112600901
4.567164177218804077540426 -0.03749355285188167574705886 2.458843738181723637126197
4.56480961985250033308148 -0.03592384794100888373291625 2.47888577191150183409718
4.56480961985250033308148 0.03592384794100886985512844 2.47888577191150183409718
4.57420225324831086766153 0.02341740079289052547939498 2.465881814211230427247301
4.566379324763366831518852 0.03592384794100886985512844 2.462219105244835226642408
4.574987105703746337326265 -0.01666666666666667684371106 2.46250644714811839364188
4.568733882129671464156218 -0.02085267477772175317984882 2.456253223574059507683387
4.568733882129671464156218 0.01248065855561158316033854 2.456253223574059507683387
4.239632262401373807847449 -0.002441285118351281969301114 2.542073547519724918686279
4.231705809921098904169412 0.0150391432544324816361625 2.534147095039450015008242
4.239632262401373807847449 0.03251957162721622052181658 2.542073547519724918686279
4.236814040012053084183208 -0.03527438399517887623879631 2.522088424007231655110672
4.230014876487505404156764 -0.01942147903462928398843346 2.530828638193623358887407
4.238504973445644807839017 -0.03414709503945040358630081 2.540132496857879118579149
4.230014876487506292335183 0.01942147903462931868290298 2.530828638193622914798198
4.238504973445644807839017 0.03414709503945042440298252 2.540132496857879562668359
4.236814040012053084183208 0.03527438399517889011658411 2.522088424007231655110672
4.236814040012053084183208 -0.005823151985536804443877035 2.507362808002410847763031
4.229451232009641792330967 0.01278456534297542357414557 2.514725616004821251436852
4.236814040012053084183208 0.03139228267148762296923081 2.507362808002410403673821
4.222652068485095000482943 0.0008137617061171137583866497 2.523465830191212511124377
4.223215712962959500487159 -0.001941050661845519081927236 2.524843236375194255316501
4.578035102670311218275856 0.000889176125292875452546526 2.52285407345498180475829
4.577184433429125398617998 -0.002590514607664609961212854 2.524593918821460114543243
4.568445018917252298251697 -0.01488831441608200883974789 2.534222509458626149125848
4.560556273646565017543253 -0.03244415720804154357193028 2.542111254729312541655872
4.560556273646564129364833 0.002667528375877529361881457 2.542111254729312541655872
4.569295688158439006087974 -0.02014635739962414642811872 2.516705173550773722013219
4.563108281370124252873666 -0.03592384794099794109722978 2.50792725215479395117768
4.560556273646565017543253 -0.03422250945862619769810564 2.526333764187939312506614
4.560556273646565905721673 0.03422250945862620463699955 2.526333764187939312506614
4.57099702664081064540369 0.02014635739962414989756567 2.515815997425480787796914
4.562257612128938433215808 0.03422250945862620463699955 2.509667097521272260962633
4.571847695881996465061547 -0.0166666666666666594964763 2.514076152059002033922752
4.564809619852495004010962 -0.02556178951033870674902637 2.507038076029501016961376
4.564809619852495892189381 0.007771543822994622652267083 2.507038076029501016961376
4.242422799789331122610747 0.004536798735989257258527374 2.562113998946657478228417
4.234845599578662245221494 -0.01666666666666666296592325 2.56969119915732591152846
4.242422799789331122610747 -0.02879653459734406867331913 2.562113998946657478228417
4.226348994408620995955062 -0.0003265436734165415993969006 2.576675538082037864029417
4.225429589449248624077882 0.001512266245329731530547268 2.57608267679608138323033
4.232868823896822618735314 -0.01899269461811350229174522 2.567015918936272900197082
4.241609038083213434333629 -0.03484559957866305984763855 2.560601732701327737373731
4.22518598043289728138916 -0.00265257162486337658841018 2.575512524106314593552725
4.225185980432898169567579 0.002652571624863374853686704 2.575512524106314593552725
4.232868823896821730556894 0.01899269461811349535285132 2.567015918936272900197082
4.241609038083213434333629 0.03484559957866305984763855 2.560601732701327737373731
4.239632262401373807847449 -0.002441285118351312326961944 2.557926452480274726042353
4.231705809921098904169412 0.01503914325443245561531036 2.56585290496054962972039
4.239632262401373807847449 0.03251957162721622052181658 2.557926452480274726042353
4.224022966457174455001677 0.0003265436734165392141521211 2.574349510130590878986823
4.22426657547352490951198 -0.0008137617061171041089873146 2.574919662820358112753638
4.287886001053341722411005 -0.004536798735989104602861488 2.592422799789331211428589
4.280308800842672845021752 0.01364213417600726625800167 2.584845599578662778128546
4.287886001053341722411005 0.03182106708800364058831178 2.592422799789331211428589
4.2727316006320039676325 -0.03484559957866303209206293 2.577268399367993900739293
4.2727316006320039676325 0.03484559957866303903095684 2.577268399367994788917713
4.257577200210667101032413 0.004536798735989226900866544 2.562113998946657478228417
4.265154400421335090243247 -0.01364213417600713962318792 2.56969119915732591152846
4.257577200210667101032413 -0.0318210670880035018104337 2.562113998946657034139207
4.542797289931254312023157 0.006783739587519084165978533 2.563986449656264099417058
4.535594579862507913503578 -0.0166666666666666664353702 2.571189159725013606561106
4.542797289931254312023157 -0.02654959374581424350059145 2.563986449656264099417058
4.52118915972501245192916 -0.01214417360832541377402283 2.585594579862508624046313
4.513986449656261612517483 -0.0310720868041675715720551 2.592797289931254134387473
4.513986449656261612517483 0.006783739587516744024009441 2.592797289931254134387473
4.52839186979375796227032 -0.035594579862508822498679 2.563986449656263211238638
4.513986449656261612517483 -0.0355945798625088294375729 2.578391869793758228723846
4.513986449656261612517483 0.0355945798625088294375729 2.578391869793757784634636
4.52839186979375796227032 0.035594579862508822498679 2.563986449656263211238638
4.576071737463015765001728 0.0003651226754494765747161011 2.574293385212433005193589
4.575809710738095503756995 -0.0008891761252914129722360603 2.57492053461280345771911
4.574234499410865240065505 -0.002261246529169672232761901 2.57649574594003416549981
4.572921314808555237618748 0.0003651226754494761410352321 2.577443807866894420754988
4.567658938742487073625398 -0.01792096546740755413917867 2.566769762617195471676723
4.560032220196720942340107 -0.03422250945862474053038582 2.558253867946136850264338
4.56571860473980617456391 -0.01929303587128581437548647 2.570241097798148022235409
4.55888101734650774687907 -0.03369845600878280944545651 2.561142263875679336848634
4.566083727415255921755488 0.01929303587128581437548647 2.568344973944426179457423
4.557567832744197744432313 0.03559457986250300076669362 2.562090325802539592103813
4.568182992192329372471704 0.01792096546740755413917867 2.566404639941745280395935
4.559770193471799792916954 0.03369845600878280944545651 2.55888101734650774687907
4.568445018917249633716438 -0.01666666666666666296592325 2.565777490541374383781204
4.560556273646563241186414 -0.03066580495745726067657877 2.55788874527068665898355
4.560556273646563241186414 0.002667528375876073061523375 2.55788874527068710307276
4.557202710068747997240735 0.006783739587513268505525321 2.563986449656261434881799
4.564405420137496172117153 -0.01214417360832306842788331 2.571189159725007833401378
4.557202710068747997240735 -0.03107208680415940796337715 2.563986449656261434881799
4.292007985033163386390243 0.002047910198985147811612251 2.610039925165820395847049
4.284015970066326950416169 -0.01666666666666666990481716 2.618031940132655499553493
4.292007985033163386390243 -0.03128542313434819199802206 2.610039925165820395847049
4.275527653592346766231458 -0.0003099662812949935441000915 2.62583761987364150414237
4.275031352085201241663981 0.0006826367329950489091366927 2.625651284647791516846382
4.281406252331835027291618 -0.01886156964499141955315942 2.616251851910498249509374
4.290495718787832757357137 -0.03401597006632838676720709 2.609357288432825328072795
4.274430202103183695783173 -0.002504869259619744385064743 2.624740168384478877783295
4.274430202103183695783173 0.002504869259619743084022137 2.624740168384479321872504
4.281406252331835915470037 0.01886156964499141955315942 2.616251851910498693598583
4.290495718787833645535557 0.03401597006632838676720709 2.609357288432825328072795
4.287886001053341722411005 -0.004536798735989104602861488 2.607577200210668078028675
4.280308800842672845021752 0.01364213417600726625800167 2.615154400421336511328718
4.287886001053341722411005 0.03182106708800363364941788 2.607577200210668522117885
4.273332750614021513513308 0.0003099662812949922972675931 2.623642716895316695513429
4.273933900596039059394116 -0.001512266245329702040248177 2.624553833158628890487307
4.342759924486149891720288 0.006559546916899452496940714 2.613799622430748925694388
4.335519848972299250533524 -0.0166666666666666664353702 2.621039697944599122791942
4.342759924486149891720288 -0.02677378641643388471060838 2.613799622430748925694388
4.326845197272467302695986 -0.0006826367329950460902110443 2.627527834005463525102186
4.325410621086487772402052 0.002186515638966484743888063 2.626775894552477730314877
4.32827977345844949752518 -0.03551984897229981674726673 2.613799622430749369783598
4.317418606119652224606398 -0.01953581903862820073891626 2.618783879585642182519223
4.311613106791782001891988 -0.03551984897229981674726673 2.612295743524777780208979
4.319605121758618437866062 0.01953581903862820073891626 2.620287758491613772093842
4.310178530605801583419634 0.03401597006632837982831319 2.611543804071791985421669
4.32827977345844949752518 0.03551984897229981674726673 2.613799622430748925694388
4.30799201496683537015997 0.00204791019898514824529312 2.610039925165820395847049
4.315984029933670917955624 -0.01530139320067657078550116 2.618031940132656387731913
4.30799201496683537015997 -0.03265069660033828591316762 2.610039925165820839936259
4.397935142438075928339458 0.03761085462845661225861349 2.639675712190379996968659
4.395870284876152389585968 -0.0166666666666665658214086 2.641740569752304423900569
4.397935142438075928339458 0.004277521295123274183702655 2.639675712190379996968659
4.386443693723334646961121 -0.002186515638966379793117767 2.638630209362301748399204
4.379081960132442219446602 0.01253695154281887248759464 2.63345499141037553414435
4.393805427314227962654059 -0.04587028487615210647909691 2.639675712190379996968659
4.371841884618591578259839 -0.03139013384845192045080609 2.626214915896525781136006
4.377138760647561355199286 -0.04587028487615210647909691 2.629325276286527568458951
4.38437883616141199638605 0.03139013384845201759532074 2.636565351800378209645714
4.369777027056668927684768 0.03551984897229981674726673 2.624150058334601354204096
4.393805427314228850832478 0.04587028487615220362361157 2.639675712190380441057869
4.357240075513850285915396 0.006559546916899451629578977 2.613799622430749369783598
4.36448015102769915074532 -0.01229363538873369694759408 2.621039697944599566881152
4.357240075513850285915396 -0.03114681769436685246366103 2.613799622430749369783598
4.443392301326819726625672 0.01035380796091085742194338 2.616961506634091882972371
4.43678460265363838743724 -0.01666666666666668031315801 2.623569205307273666250012
4.443392301326819726625672 -0.02297952537242247197935008 2.616961506634091882972371
4.422182793548895318735958 -0.01253695154281878401669736 2.634719745091712805873385
4.414188683117332701044688 0.003451269320303721344772585 2.639262586202970162219117
4.430176903980456160070389 -0.03678460265363696357621137 2.616961506634091882972371
4.412123825555409162291198 -0.03265488752978906727975072 2.637197728641046623465627
4.413510237313789552615617 -0.03678460265363697745399918 2.626047188856607039753044
4.415575094875713091369107 0.03265488752978915748537148 2.628112046418531022595744
4.405516126882227823102767 0.04587028487615220362361157 2.630590029967865284277195
4.430176903980456160070389 0.03678460265363694969842356 2.61696150663409232706158
4.402064857561923894024858 0.03761085462845660531971959 2.639675712190379996968659
4.404129715123847432778348 0.008407236418971177419057206 2.641740569752303979811359
4.402064857561923894024858 -0.02079638179051436497335459 2.639675712190379996968659
4.49211201443054353177331 0.002672086583261852610338138 2.610560072152718014137918
4.48422402886108706354662 -0.01666666666666666990481716 2.618448057722173594186188
4.49211201443054353177331 -0.03066124675007148719929617 2.610560072152718014137918