# geometry NO_DATA 428
#  x  y  z
4.295593578090782571621276 0.02399348569835601380217938 2.22839990760757267196368
4.291187156181566209056655 -0.01666666666666666990481716 2.232590320939960903956489
4.295593578090782571621276 -0.009339847634977322538007982 2.22839990760757267196368
4.278703726546413399489666 -0.008300192603639204233512139 2.241187156181565942603129
4.270626718820476952487297 -0.03282068211853896022578425 2.24559357809078274925696
4.270626718820476952487297 0.01622029691126055522820693 2.24559357809078274925696
4.289370262042242032407557 -0.0411871561815664311012597 2.230773426800636727307392
4.276886832407089222840568 -0.0411871561815664311012597 2.239370262042241765954032
4.276886832407089222840568 0.04118715618156642416236579 2.239370262042241765954032
4.289370262042242032407557 0.0411871561815664311012597 2.230773426800636727307392
4.346544158659506607023104 -0.01209560341078777696843805 2.205741372968431424084201
4.348272079329753125875868 0.01778188858205316524863093 2.206298983926124890331266
4.348272079329753125875868 -0.04197309540362872959384788 2.206298983926124890331266
4.324925498516032362772421 -0.03854530508719169329401311 2.211714673189858260116125
4.337592738396541136580709 -0.04654415865950760344826875 2.21000077803163996748026
4.309986752519611385991993 -0.04200114642768409956019582 2.218056583944673754160704
4.309986752519611385991993 0.04200114642768407874351411 2.218056583944673754160704
4.324925498516032362772421 0.03854530508719170023290701 2.211714673189858704205335
4.337592738396541136580709 0.04654415865950761732605656 2.21000077803163996748026
4.333876918778997833214817 -0.0086678130943507458727737 2.207455268126650160809277
4.322937599568735578259293 0.0132108253261742809858692 2.209726774242561919692207
4.307998853572315489657285 -0.0005270038165437450090183846 2.216068684997376969647576
4.303999426786157656010801 0.0248074759444736753222216 2.220139089636280704809224
4.303999426786157656010801 -0.02586148357756116317185402 2.220139089636280704809224
4.399258947876919734198964 -0.01522843556776976720046335 2.201460167672528278615118
4.399629473938460044735166 0.0173638456424832429703109 2.201808757160436780253576
4.399629473938459156556746 -0.0478207167780227843101315 2.201808757160436780253576
4.369458962230039489327282 -0.04711166484531771614374662 2.203533347686453591762756
4.385051987380905735847136 -0.0492589478769196800755914 2.203178821720101154824079
4.353162821624913192408712 -0.04785271696839804578260669 2.205448353252852822237173
4.353162821624913192408712 0.04785271696839805272150059 2.205448353252852822237173
4.369458962230039489327282 0.04711166484531773696042833 2.203533347686453591762756
4.385051987380905735847136 0.04925894787691968701448531 2.203178821720100710734869
4.38366592272605437585753 -0.01451938363506470770769585 2.201814693638881159643006
4.368443423636728439873878 0.0159256145435863541437449 2.202517809093142098220142
4.352147283031601254776888 -0.01209560341078777870316152 2.204432814659541328694559
4.35107364151580000566355 0.01909044689094360064407496 2.20564470477167962059184
4.35107364151580000566355 -0.04328165371251916498929191 2.20564470477167962059184
4.447551100596019324484587 -0.01149847577201266665691826 2.205032994851307215355973
4.448775550298009306970926 0.01938595815734021204912452 2.206392640596643417438827
4.448775550298009306970926 -0.04238290970136555230185493 2.206392640596643861528037
4.41663310634958072853351 -0.04678876687253317318004875 2.202415339086894796594152
4.432918606154505170025004 -0.04755110059601955208030688 2.204618267672478815200066
4.401190889384904991743497 -0.04923766627651361693640553 2.201910004934353182193263
4.401190889384904991743497 0.04923766627651363775308724 2.201910004934353182193263
4.41663310634958250489035 0.04678876687253318011894265 2.202415339086894796594152
4.432918606154505170025004 0.04755110059601955901920078 2.204618267672478371110856
4.431265600791096659349932 -0.01590433294318027712677122 2.202830066265723196750059
4.416204550688163976701617 0.01421776726268623308735428 2.201986783425476268405419
4.400762333723486463554764 -0.01522843556776976720046335 2.20148144927293465400453
4.400381166861743409413066 0.01734256404207717983112502 2.201819397960639523859072
4.400381166861743409413066 -0.04779943517761672810983953 2.201819397960639967948282
4.491614711337061471851939 -0.0004774921220195235964552094 2.216479875935260857033882
4.49580735566853029183676 0.02447055254837619125973802 2.220381818876115964656037
4.49580735566853029183676 -0.02542553679241524311471778 2.220381818876115964656037
4.468370190361795835087833 -0.03754335703362368659163906 2.210088812358066867602702
4.483001179876742625651787 -0.04161471133706238362259811 2.21614772247867097831886
4.455896168026598047617881 -0.04592864569656129880570461 2.208480263473925120365493
4.455896168026598047617881 0.04592864569656129880570461 2.208480263473925120365493
4.468370190361795835087833 0.03754335703362369353053296 2.210088812358066867602702
4.483001179876742625651787 0.04161471133706238362259811 2.21614772247867097831886
4.476983721822113793109565 -0.01259531236322796766968768 2.210420965814656746317723
4.466545376638635822530432 0.008281378003729057690751603 2.208263998634907299134511
4.454071354303438035060481 -0.01149847577201266492219478 2.206655449750765107808093
4.452035677151718218169663 0.0177635032578819622439692 2.207203868046372807754096
4.452035677151719106348082 -0.04076045480190730596614657 2.207203868046373251843306
4.532255579398400513468914 -0.01316863874491687805279305 2.245424218143317052209795
4.522991462484224456375159 0.01101313087505127394361004 2.240848436286634104419591
4.532255579398400513468914 0.03519490049501942940946009 2.245424218143317052209795
4.518415680627541064495745 -0.04084843628663482190122025 2.23685213874897392827279
4.518415680627541064495745 0.04084843628663481496232635 2.236852138748974372361999
4.504575781856682503700995 0.02370427749794862606891321 2.228280059354631248424994
4.50915156371336500740199 -0.0004774921220195259274898802 2.232276356892291424571795
4.504575781856682503700995 -0.02465926174198768139333993 2.228280059354631248424994
4.243768086812833573162607 0.01098470669268679367203134 2.26721661987985401154333
4.237536173625667146325213 -0.01666666666666666990481716 2.274260440159177498742338
4.243768086812833573162607 -0.02234862664064654960704992 2.26721661987985401154333
4.225667359370765652215596 -0.00707096184313727588177656 2.287536173625667856867949
4.220030458303029696764952 -0.02794046880213713057727887 2.293768086812834283705342
4.220030458303029696764952 0.01379854511586257881372575 2.293768086812834283705342
4.236170117665800205486448 -0.03753617362566652460031946 2.272894384199311446081992
4.224301303410898711376831 -0.03753617362566652460031946 2.286170117665801360118394
4.224301303410898711376831 0.03753617362566651766142556 2.286170117665801360118394
4.236170117665800205486448 0.03753617362566652460031946 2.272894384199311446081992
4.25787040810145178681978 -0.04753818345756616325914479 2.253687171069938877110417
4.253687171069938877110417 -0.04753818345756617019803869 2.257078104270116014617997
4.253687171069938877110417 0.04753818345756617019803869 2.257078104270116014617997
4.25787040810145178681978 0.04753818345756616325914479 2.253687171069938877110417
4.25959738233424367592761 -0.03917170939453869932256325 2.251230908271216524241254
4.256645053573946846370291 -0.008300192603639202498788663 2.252461816542433048482508
4.25959738233424367592761 0.02257132418726029432498592 2.251230908271216524241254
4.252461816542433048482508 -0.009884800266313064492917917 2.255852749742610185990088
4.251230908271216080152044 0.02098671652458643580030362 2.258012774671570355167205
4.251230908271216080152044 -0.0407563170572125613166925 2.258012774671570355167205
4.548415604726344874109145 -0.01257340342647490956384804 2.253631026893750277650952
4.549207802363172348236731 0.01917553463320371617828464 2.254885460877019021097567
4.549207802363172348236731 -0.04432234148615353530598071 2.254885460877019021097567
4.546381034467364301576708 -0.0484156047263452973816733 2.252838829256923247612576
4.546381034467364301576708 0.0484156047263452904427794 2.252838829256923247612576
4.545588836830536827449123 -0.01666666666666666296592325 2.251584395273654060076751
4.543554266571556254916686 0.009428735601396572019172737 2.250792197636827030038376
4.543554266571556254916686 0.04276206893472989795101924 2.250792197636827030038376
4.575197531056773847524255 0.0002991686706922224553949208 2.275101637613918370561805
4.575323142031406220553436 -4.794672142796792008861972e-05 2.275275195309978570890053
4.58136291259802241881971 0.0121274878546594831046912 2.283632502004025344177762
4.587277072190006244056804 -0.004838347482699409743411856 2.291816251002012805315644
4.587277072190006244056804 0.02909332319201837768751773 2.291816251002012805315644
4.575005489400462366234024 -0.0006832519833160997230203648 2.274957542679033828392221
4.566648182706414260678685 -0.01730197192855479487727521 2.268694814326510655888569
4.57287999492934282841361 -0.03363250200402555928347326 2.277196215955441971345863
4.566648182706414260678685 0.01730197192855479487727521 2.268694814326510655888569
4.57287999492934194023519 0.03363250200402555234457935 2.277196215955441971345863
4.575005489400462366234024 0.0006832519833160925672860264 2.274957542679033828392221
4.574879878425829993204843 -0.0003361365911959092391166071 2.274783984982973628063974
4.574687836769518511914612 4.794672142796087277449857e-05 2.274639890048089529983599
4.566330530075470406359273 -0.01257340342647491129857151 2.268377161695566357479947
4.558165265037734670272584 0.004429399831387658033332588 2.26225852827792728305667
4.558165265037734670272584 -0.02957620668433748323256083 2.26225852827792728305667
4.197854278902944713536272 0.02890437922033060880178112 2.331050100317385798120995
4.195708557805889249436859 -0.01666666666666667337426411 2.337306468513109969364905
4.197854278902944713536272 -0.004428954113002725803682758 2.331050100317385798120995
4.191002204725567281684562 0.00725396050602414993457856 2.345708557805889604708227
4.188441572742301666210096 -0.02178793063319867800986529 2.347854278902945068807639
4.188441572742301666210096 0.03629585164524697787902241 2.347854278902945068807639
4.194083620488443742146956 -0.04570855780588950478815491 2.335681531195663573896582
4.189377267408121774394658 -0.04570855780588950478815491 2.344083620488443209239904
4.189377267408121774394658 0.0457085578058894839714732 2.344083620488443209239904
4.194083620488442853968536 0.0457085578058894839714732 2.335681531195664017985791
4.210304257032563057805419 -0.04623319691046629681396851 2.305506404620798033278106
4.205506404620797944460264 -0.04623319691046629681396851 2.313770981994685005389556
4.205506404620797944460264 0.04623319691046628987507461 2.313770981994685005389556
4.210304257032562169626999 0.04623319691046628987507461 2.305506404620797589188896
4.211479106368296143614316 -0.03663749208693690279092792 2.301883401544767338009478
4.208564655501298545914324 -0.00707096184313728021858525 2.303766803089533965476221
4.211479106368296143614316 0.02249556840066234755792784 2.301883401544767338009478
4.203766803089533432569169 -0.0001375119188922214465923416 2.312031380463420937587671
4.201883401544766805102427 0.02942901832490739735814778 2.318412556292541282232378
4.201883401544766805102427 -0.02970404216269184605181408 2.318412556292541282232378
4.598236171247821246765852 -0.01006467511691478897151164 2.305064824527054856417863
4.599118085623911333925662 0.02150482946424000021967693 2.30748390592584140534882
4.599118085623911333925662 -0.04163417969806957469325326 2.30748390592584140534882
4.596848496217907253935664 -0.04823617124782145909600573 2.304182910150965213347263
4.596848496217907253935664 0.04823617124782145909600573 2.304182910150965657436473
4.595966581841818054954274 -0.0166666666666666664353702 2.301763828752179108505516
4.594578906811904062124086 0.01036365910248093248624546 2.300881914376089909524126
4.594578906811904062124086 0.04369699243581426362226239 2.300881914376089909524126
4.620152758409025395280878 -0.02566257922862408974440385 2.345815337637649378166316
4.616353372748038808026649 -0.0006985706199918670106924212 2.341630675275299111603999
4.620152758409025395280878 0.02426543798864035789142335 2.345815337637649378166316
4.612168710385687653285913 -0.04163067527529890066162466 2.3324496667458589627131
4.612168710385687653285913 0.04163067527529890066162466 2.3324496667458589627131
4.604184662362350799469368 0.01489933349171744178529586 2.319083995854068547259885
4.608369324724701066031685 -0.01006467511691478897151164 2.328265004383508696150784
4.604184662362350799469368 -0.03502868372554701625887219 2.319083995854068103170675
4.176589790532025503466684 0.0006032270370004261771101906 2.374013436504974539076329
4.176247315543762717027221 -0.001288177013525544341646101 2.37495913853023754569449
4.173606582599630243635147 -0.003993288874738634176841945 2.383936560370333967995293
4.171308324643761444860957 -0.02126318257840572462091799 2.391968280185166939588726
4.171308324643761444860957 0.01327660482892845973668106 2.391968280185166939588726
4.176488328403999972238125 -0.01855807071719263803832867 2.375200151390475689083814
4.179813695138513196525309 -0.03462151034685887612818433 2.366565204538642053222475
4.173847595459869275202891 -0.03393656037033376121625494 2.384177573230572111384618
4.173847595459869275202891 0.03393656037033376121625494 2.384177573230572111384618
4.179572682278275053135985 0.01855807071719263456888172 2.36632419167840390983315
4.179471220150249521907426 0.03393656037033376121625494 2.367510906563905059840636
4.179915157266536951397029 -0.01666666666666666990481716 2.36537848965314090321499
4.18289804901278650106633 -0.008124529147116973243347715 2.357689244826570718061021
4.18289804901278650106633 0.02520880418621636309683964 2.357689244826570718061021
4.637657797187111796688441 0.0110169308284659220320556 2.373359133641353313493028
4.639591596714905286091835 -0.007149331772879713442492289 2.382442264942025822449523
4.641005885752143456102203 0.009977909847356119382721928 2.394350264161799302087275
4.640486375261589024887598 -0.01770568764777646908470388 2.397175132080899828679321
4.640486375261589024887598 0.03766150734248871478904164 2.397175132080899828679321
4.637495708088746226849253 -0.03483292926801230537936505 2.380346376315865875028521
4.631637957364516999803072 -0.04048266510621303937433879 2.366504577568299794165796
4.638909997125983508681202 -0.04435026416179925490279601 2.392254375535639354666273
4.638909997125983508681202 0.0443502641617992479639021 2.392254375535639354666273
4.633733845990676059045654 0.03483292926801229844047114 2.368600466194459741586797
4.633571756892309601028046 0.04435026416179925490279601 2.375587708868972303122291
4.631800046462883457820681 -0.0166666666666666664353702 2.359517334893786788541092
4.627876095266447720177894 -0.01021590551377882585826207 2.354758667446893216634862
4.627876095266447720177894 0.02311742781955450701247834 2.354758667446893216634862
4.158601818831614949090181 -0.03911542137243371325405761 2.447717240204048572138618
4.157725049109734172247954 -0.01034760763100321667717907 2.445434480408097410730761
4.158601818831614949090181 0.01842020611042728683859337 2.447717240204048572138618
4.165248317692152646429804 -0.0428210084237604232670904 2.408911628796188697521075
4.161194388592139858928931 -0.03825548883185759391212244 2.42329553566690414356799
4.160764422321851618846722 -0.04543448040809716648169569 2.43637270654545101677968
4.161194388592139858928931 0.03825548883185759391212244 2.42329553566690414356799
4.160764422321851618846722 0.04543448040809716648169569 2.43637270654545057269047
4.165248317692152646429804 0.0428210084237604232670904 2.408911628796188697521075
4.166262873580047099153489 -0.03014763063183240054954126 2.40358949578812008951445
4.163515680472203328577052 -0.003993288874738633309480207 2.407178991576239823757533
4.166262873580047099153489 0.02216105288235512699168694 2.40358949578812008951445
4.159461751372191429254599 0.01210114707476383014150834 2.421562898446954825715238
4.158155015380022412330163 -0.0094876750904270973352439 2.432357309529550537519071
4.645924494785802494334348 0.01515975453659578267573416 2.419235259750793787247858
4.646832063295348369535986 -0.01334461751750413982531285 2.43348744577784348308569
4.647157688251995821815399 0.01399586743080023266971867 2.448493087869929141220382
4.646575744699098287071592 -0.01783055377246221817610916 2.449246543934964659428033
4.646575744699098287071592 0.04582228863406268004609956 2.449246543934964215338823
4.646067090226894791271661 -0.04517103872076658893641721 2.432722472709391237088994
4.643476167882275795761871 -0.04667795085083747963494716 2.416809262107760147841873
4.646392715183543131729493 -0.04849308786992911901592151 2.447728114801476895223686
4.646392715183543131729493 0.04849308786992910513813371 2.447728114801476451134477
4.644241140950728485847776 0.04517103872076658893641721 2.417574235176212837927778
4.644383736391821670963509 0.04849308786992911901592151 2.431061448134809843679704
4.643333572441182610646138 -0.0166666666666666664353702 2.403322049149162698000737
4.641650218606108602159566 0.006655860698193596242111525 2.401661024574581304591447
4.641650218606108602159566 0.03998919403152692564340498 2.401661024574581304591447
4.157295203323597476696705 -0.04113387007031354958286329 2.498429073393912069889211
4.15600399157093036706101 -0.01094238994915614632263967 2.496858146787824139778422
4.157295203323597476696705 0.0192490901720012604070309 2.498429073393912069889211
4.157964509648513384831858 -0.04659832148798160461611317 2.454804980130681713035301
4.156375906736768932603354 -0.04345646827580568194449029 2.469900720191260390379284
4.157537205839515692673558 -0.04685814678782407316504077 2.484866547601917829979357
4.156375906736769820781774 0.04345646827580566806670248 2.469900720191260390379284
4.157537205839515692673558 0.04685814678782407316504077 2.484866547601918274068566
4.157964509648513384831858 0.04659832148798160461611317 2.454804980130681713035301
4.158019898291673399626234 -0.04027926245231815138847509 2.451700839256009345490384
4.15656120802985018514164 -0.01034760763100322014662602 2.453401678512018513345083
4.158019898291673399626234 0.0195840471903117215035639 2.451700839256009345490384
4.154972605118106621091556 0.01352481345449072988595951 2.468497418572597190689066
4.154842692468184495169226 -0.01326498815464827868426667 2.48189231937716670017835
4.647529557949202860811511 0.01452662714011633202093599 2.466997069190912661440507
4.647159749329688338548294 -0.01526624437914493245815883 2.481893504950543505316318
4.645715384434723205231421 0.01237751458921473521335166 2.497859960473449270068613
4.644640828159272594177764 -0.01881577921756825977350758 2.498929980236724635034307
4.644640828159272594177764 0.0435708083959977371391048 2.498929980236724635034307
4.646184492433068413674846 -0.04645953818592793438391197 2.48091824805392402453208
4.645919112578410725689082 -0.04859957771247826185945229 2.465321601150532782043001
4.644740127538103280357973 -0.04785996047344966142222944 2.496884703576829789284375
4.644740127538103280357973 0.04785996047344966142222944 2.496884703576829789284375
4.64689436947503065056253 0.04645953818592792050612417 2.46629685804715226282724
4.645549303958896203425866 0.04785996047344966142222944 2.480218036910163181829603
4.647264178094545172825747 -0.01666666666666666296592325 2.451400422287521863040638
4.646628989620372962576766 0.01259544514327849348833688 2.450700211143761020338161
4.646628989620372962576766 0.04592877847661182288963033 2.450700211143761020338161
4.167124908105736658114893 -0.02940419457274959583181762 2.546529102678486200517227
4.163768800035137829240739 -0.003012655882443014861149511 2.543058205356972578670138
4.167124908105736658114893 0.02337888280786355743590121 2.546529102678486200517227
4.158537117748593914257071 -0.04616115104040680039432232 2.505674979389839407417639
4.159145876711352940446886 -0.03921935639738003548382395 2.518870748734992393025323
4.164053457623666965048415 -0.04305820535697324480395309 2.53361799092186235071722
4.159145876711351164090047 0.03921935639738003548382395 2.518870748734992393025323
4.164053457623667853226834 0.04305820535697324480395309 2.53361799092186235071722
4.158537117748593914257071 0.04616115104040678651653451 2.505674979389839407417639
4.157643701197306640438001 -0.04043687432289627681214483 2.501919424479797093852085
4.156700987318346918186762 -0.01094238994915614285319272 2.50383884895959329952575
4.157643701197306640438001 0.01855209442458398416686549 2.501919424479796649762875
4.157309746281105944376577 0.009724872023639908463765735 2.517034618304746729222643
4.158861219122822916460791 -0.0128278177070734536457941 2.528310963170103065067451
4.64393801632139791024656 0.01033469423421368854620894 2.516396677912815071920249
4.642220028836359979607096 -0.0137706692042913608764465 2.528449359632067849901205
4.637420046546084861915915 0.004170704623742794298069114 2.543668027567547174072615
4.634338051740849451221038 -0.02283065627713756068351003 2.546834013783773720263071
4.634338051740849451221038 0.03117206552462315274909521 2.546834013783773720263071
4.640372406106881619791693 -0.0407720301051717193274726 2.526601736902589934175012
4.641393816284381301784379 -0.04710400253762470068608081 2.513101056452149872910695
4.635572423816606502100512 -0.04366802756754702141694935 2.541820404838069258346422
4.635572423816607390278932 0.04366802756754702141694935 2.541820404838069258346422
4.643241439013859661599781 0.0407720301051717193274726 2.514948679181627788636888
4.639675828799342482966495 0.04366802756754702141694935 2.52515373817140265089165
4.644959426498898480417665 -0.01666666666666666296592325 2.502895997462375010655933
4.644262849191360231770886 0.00948151712683943832804534 2.501447998731187283283361
4.644262849191360231770886 0.04281485046017276252516837 2.501447998731187283283361
4.187741866398566159546135 0.01553264352568717310276725 2.578357788697609898065366
4.1938709331992827245017 0.03660784325758745932910543 2.588328376993070722988932
4.1938709331992827245017 -0.005542556206213135674976122 2.588328376993070722988932
4.18403127192472812367896 -0.03774186639856695613115534 2.572228721896893333109801
4.18403127192472812367896 0.03774186639856697000894314 2.572228721896893333109801
4.177902205124011558723396 -0.01666666666666664908813544 2.562258133601432952275445
4.174191610650173522856221 -0.01527078948387605196457262 2.556129066800716387319881
4.174191610650173522856221 0.01806254384945728264089126 2.556129066800716387319881
4.201035692248344943777738 -0.04879456625373479461416082 2.599830258502080049254346
4.20077245837105195391814 -0.01580071591624141597032249 2.599660517004160453780059
4.201035692248344943777738 0.01719313442125195920406888 2.599830258502080493343556
4.200602716873132358443854 -0.04966051700416004854865548 2.599263246931590387589495
4.200602716873132358443854 0.04966051700416003467086767 2.599263246931590387589495
4.20016974149791977310997 0.04852649386318053092992386 2.598696235361100725924643
4.200339482995840256762676 0.01553264352568715402080901 2.599093505433670348025998
4.20016974149791977310997 -0.01746120681180621941885889 2.598696235361100725924643
4.607060219495862085636873 -0.03928350117648510969603493 2.596343720672347643585454
4.60901452873940975507594 -0.01326272649845696219306213 2.592687441344694754263855
4.607060219495862085636873 0.01275804817957118877935763 2.596343720672347643585454
4.624983839374689154055886 -0.03585365421359204551876587 2.56456515372948468112213
4.618221433057136948718835 -0.02854109555828685668155131 2.577575541068498399255304
4.612850230248037419755747 -0.04268744134469482087723691 2.587169034841960701953667
4.618221433057136948718835 0.02854109555828685668155131 2.577575541068498399255304
4.612850230248037419755747 0.04268744134469482087723691 2.587169034841960701953667
4.624983839374689154055886 0.03585365421359204551876587 2.56456515372948468112213
4.627910544183612806534711 -0.0150162829231825813158796 2.557073172893204571209935
4.624565031431612460721681 0.004170704623742794298069114 2.564146345786408431877135
4.627910544183612806534711 0.02335769217066816644257088 2.557073172893204571209935
4.617802625114060255384629 0.009354108011361481067602597 2.577156733125422150010309
4.614385731548508395860608 -0.002520320880258709178578513 2.583093947571232007476283
4.246756877869020563309732 0.04057462198544096315666607 2.643817744116420342948004
4.243513755738041126619464 -0.0166666666666666664353702 2.642044188861741194074284
4.246756877869020563309732 0.00724128865210762855120219 2.643817744116420342948004
4.234000935072979032725016 -0.002358974663459017552524788 2.636359909736437412419718
4.227731236538895487342415 0.01018042240470787632156124 2.632449185865813223728082
4.215102055381247936338696 -0.04102268479734441641859632 2.61466908000603570627618
4.230523186577566541188844 -0.0435137557380412126617486 2.62862064432605402330978
4.221822926007639864565135 -0.02671499279413676319894222 2.624181900671098688349048
4.221822926007639864565135 0.02671499279413675626004832 2.624181900671098688349048
4.215102055381247936338696 0.04102268479734441641859632 2.61466908000603570627618
4.230523186577566541188844 0.0435137557380412126617486 2.62862064432605402330978
4.202111486220773350908075 -0.04664297830887795259791062 2.601245535470348535511675
4.202924046315908768178815 -0.01580071591624141597032249 2.602491070940696982205509
4.202111486220773350908075 0.01504154647639512065726564 2.601245535470348535511675
4.209644916942300696405255 0.002358974663459016251482181 2.612003891605759964278377
4.215553227473556319182535 -0.01417559572596986672277097 2.620271176800474499657412
4.254864421217186887247408 -0.04455140248185433110572617 2.649415823699041272476506
4.253308475060030957592971 -0.01238642175043802064193788 2.648831647398083077860065
4.254864421217186887247408 0.01977855898097829329129738 2.649415823699041272476506
4.25272429875907320706574 -0.04883164739808298904222283 2.647946256822741872838378
4.25272429875907320706574 0.04883164739808298904222283 2.647946256822741872838378
4.250584176300958638705652 0.0458925136454827325982464 2.64647668994644158502183
4.251168352601917277411303 0.0137275329140664151955642 2.647362080521783234132727
4.250584176300958638705652 -0.01843744781734989873767105 2.64647668994644158502183
4.59497169665602545052252 0.01068966779078749963771688 2.615717971134762453999656
4.589943393312049479959569 -0.0166666666666666664353702 2.6253165305514181149249
4.59497169665602545052252 -0.02264366554254583843719395 2.615717971134762453999656
4.575134072380029337523411 -0.01295197519737321251165341 2.639943393312049302323885
4.565353054791985165650203 -0.03622870184275643612448192 2.644971696656024384708417
4.565353054791984277471784 0.01032475144801001283589859 2.644971696656024384708417
4.587926366548160217462282 -0.03994339331204989351764567 2.623299503787528408338403
4.573117045616140075026124 -0.03994339331204989351764567 2.637926366548160039826598
4.573117045616139186847704 0.03994339331204989351764567 2.637926366548160039826598
4.587926366548160217462282 0.03994339331204989351764567 2.623299503787528852427613
4.603751253325680359296257 -0.04860175682453061335452915 2.602049283241575139413726
4.602049283241575139413726 -0.04860175682453061335452915 2.604089087147610115380303
4.602049283241575139413726 0.04860175682453061335452915 2.604089087147610115380303
4.603751253325680359296257 0.04860175682453061335452915 2.602049283241575139413726
4.604103061755944636956883 -0.04519781665632090217332717 2.600699121587734641281031
4.603100213259574857715961 -0.01326272649845696045833865 2.60139824317546963783343
4.604103061755944636956883 0.01867236365940698125664987 2.600699121587734641281031
4.60139824317546963783343 -0.01258705885459573264872901 2.603438047081504613800007
4.600699121587735085370241 0.01934803130326821080098298 2.604778729399805481392605
4.600699121587735085370241 -0.0445221490124596691595471 2.604778729399805481392605
4.290847861768162907480928 0.0003899112943599897804572429 2.667680427212349769661159
4.295423930884081364922622 0.02457110639585751571400962 2.671632647076944699904288
4.295423930884081364922622 -0.02379128380713753723729731 2.671632647076944699904288
4.280897386675528437649518 -0.04084786176816419117630019 2.663104358096431312219465
4.280897386675529325827938 0.04084786176816419117630019 2.663104358096431312219465
4.276321317559610868386244 -0.0166666666666666664353702 2.659152138231835937887126
4.266370842466976398554834 -0.02153855998227383050647177 2.654576069115917924534642
4.266370842466976398554834 0.01179477335105950409899211 2.654576069115917924534642
4.347963369383297305148517 0.04088539168442531512859262 2.692922022301129203469827
4.345926738766593189211562 -0.01666666666666664561868849 2.693406065225509848914953
4.347963369383297305148517 0.007552058351091983992575685 2.692922022301129203469827
4.33351997527145016420036 -0.008146860323618637655940233 2.691666835595069251496625
4.323149842393011255126112 0.01259340543325973733879142 2.68944356304024889681159
4.34416527383801032158317 -0.04592673876659304765812664 2.69164460029692698128656
4.318889939221486784504123 -0.03740693242354504316482533 2.685565088525619703574421
4.327498607171343714128398 -0.04592673876659304765812664 2.686026896151857190631063
4.331758510342867296571967 0.03740693242354506398150704 2.689905370666487272046652
4.31712847429290480505415 0.04148019365695199828225626 2.683803623597036835946028
4.34416527383801032158317 0.04592673876659306847480835 2.69164460029692698128656