# geometry NO_DATA 564
#  x  y  z
4.242899577368344665728728 0.007397464210066881720728738 2.164497886841721285833273
4.235799154736689331457455 -0.01666666666666666990481716 2.171598309473377952372175
4.242899577368344665728728 -0.02593586912326644594584124 2.164497886841721285833273
4.22159830947338043927175 -0.01173502385995001465190946 2.185799154736689509093139
4.214497886841727769535737 -0.03086751192997355675018412 2.192899577368344399275202
4.214497886841727769535737 0.007397464210073531783173895 2.192899577368344399275202
4.228698732105028668115665 -0.03579915473669020853364486 2.164497886841717289030385
4.21449788684171977592996 -0.03579915473669021547253877 2.178698732105028401662139
4.21449788684171977592996 0.03579915473669020853364486 2.178698732105028845751349
4.228698732105028668115665 0.03579915473669020853364486 2.164497886841717289030385
4.291989515937040700066518 0.001937095622243547492560833 2.159947579685202345700645
4.283979031874080689590301 -0.01666666666666666296592325 2.167958063748162356176863
4.291989515937040700066518 -0.03139623771108977778876437 2.159947579685202345700645
4.274412787839065863693122 -0.00246582140336265662888815 2.176878609242429707393285
4.272857027867010160093741 0.0006456985407486527748371907 2.177788670673736604044279
4.275968547811119790935663 -0.03397903187408198022456673 2.159947579685201013433016
4.265756605235358378536148 -0.01977818661077797648961685 2.170688248042076828880909
4.259301881144453183480891 -0.03397903187408198022456673 2.161767702547808589486067
4.266402303776104965038485 0.0197781866107779730201699 2.168868125179468364649438
4.257746121172397479881511 0.03579915473669598169337291 2.162677763979115930226271
4.275968547811119790935663 0.03397903187408198022456673 2.159947579685201013433016
4.257100422631651781557593 0.007397464210072665288797644 2.164497886841724394457742
4.264200845263303563115187 -0.01173502385995665864282245 2.171598309473384169621113
4.257100422631651781557593 -0.03086751192998597737027211 2.164497886841724394457742
4.34185982094623401650324 0.0011589256774062013308213 2.159299104731171148330304
4.333719641892468388277848 -0.0166666666666666664353702 2.167439283784937664734116
4.34185982094623401650324 -0.03217440765592712720311042 2.159299104731171148330304
4.325063459288760903120874 -0.0006456985407499027515218493 2.175709157829510687065522
4.324547455738818158010872 0.0003863085591361498441487221 2.175838852820317637082326
4.325579462838701871874036 -0.03371964189246948184752739 2.159299104731171148330304
4.316536971675859923891494 -0.01769867376655271870578012 2.167828368757356738427688
4.308912796172035264419264 -0.03371964189246948184752739 2.159558494712783272007073
4.316923280234993498538643 0.01769867376655271523633317 2.16756897877574417066171
4.308396792622092519309263 0.03397903187408322922546944 2.159688189703590222023877
4.325579462838701871874036 0.03371964189246948184752739 2.159299104731170704241094
4.308010484062958056483694 0.001937095622244792373495281 2.159947579685202789789855
4.316020968125916290603072 -0.0153752695851717725850083 2.167958063748163688444492
4.308010484062958056483694 -0.03268763479258833537510753 2.159947579685202789789855
4.391840848756277004838466 0.001045092537664794917276478 2.159204243781386978184855
4.383681697512554542583985 -0.01666666666666669072149887 2.167363395025109884528547
4.391840848756277004838466 -0.03228824079566854077238958 2.159204243781386978184855
4.375155209899653563354605 -0.0003863085591363539994178011 2.175541518458790068990538
4.374787873530474158201287 0.000348364179222276058606883 2.175560490648746903019628
4.375522546268831192151083 -0.03368169751255565419478799 2.159204243781386978184855
4.366647694476709418154314 -0.01740133940502531714744627 2.167420311594980830705026
4.358855879602164584696311 -0.03368169751255564725589409 2.159242188161300646243035
4.366996058655930212921703 0.0174013394050252720446359 2.167382367215067162646847
4.358488543232985179542993 0.03371964189246963450319328 2.159261160351257480272125
4.375522546268831192151083 0.03368169751255563337810628 2.159204243781386978184855
4.358140179053764384775604 0.001158925677406358323295876 2.159299104731171148330304
4.366280358107530013000996 -0.01589404954839663750010281 2.167439283784937664734116
4.358140179053764384775604 -0.03294702477419961250681979 2.159299104731171148330304
4.441863915999513245935759 0.001183495997076403983064297 2.159319579997562854600801
4.433727831999027202414254 -0.01666666666666668725205191 2.167455663998051118568355
4.441863915999513245935759 -0.03214983733625692563506959 2.159319579997562854600801
4.425220316576082169035544 -0.0003483641792223455017560307 2.175568680755303851981353
4.424848885153624067356759 0.0003944986656929228398607568 2.175545613512068321426796
4.42559174799853849435749 -0.03372783199902630590916175 2.159319579997562854600801
4.416689733909902493280697 -0.01740952951158196079783913 2.167386462268345415083104
4.408925081331870998724298 -0.03372783199902630590916175 2.159273445511092681670107
4.41708423257559346097878 0.0174095295115819122255818 2.167432596754816032103008
4.408553649909412897045513 0.03368169751255563337810628 2.15925037826785715111555
4.42559174799853849435749 0.03372783199902627815358613 2.159319579997562854600801
4.40815915124372104116901 0.001045092537664794266755175 2.159204243781386978184855
4.416318302487444391601912 -0.01596993830822419566106696 2.167363395025109884528547
4.40815915124372104116901 -0.03298496915411316260380303 2.159204243781386978184855
4.491990715639147424553812 0.00194429383487876414511597 2.159953578195731971334226
4.483981431278294849107624 -0.01666666666666666990481716 2.167962862556586323137253
4.491990715639147424553812 -0.03138903949845457674872051 2.159953578195731527245016
4.475450848612114285174357 -0.0003944986656926681607704399 2.175845347277807206864964
4.474929550306787184865698 0.0006480979449607290627383138 2.175718547638172850611227
4.475972146917439609126177 -0.03398143127829406084927655 2.159953578195731971334226
4.466793466306300253165773 -0.01770926327732006214099592 2.167582463637685030732882
4.459305480250773001671405 -0.03398143127829406084927655 2.159699978916464591094382
4.46744156425125993337133 0.01770926327732006214099592 2.167836062916952855061936
4.458784181945445013184326 0.03372783199902600059782998 2.159573179276830234840645
4.475972146917439609126177 0.03398143127829406084927655 2.159953578195731971334226
4.458136084000487109335609 0.001183495997076124909425099 2.159319579997562854600801
4.466272168000974041035533 -0.01587766933528320795199207 2.167455663998050674479146
4.458136084000487109335609 -0.03293883466764253864500489 2.159319579997562854600801
4.542820775551804857173011 0.00692465331082193092521182 2.164103877759016469894959
4.535641551103609891981705 -0.01666666666666666296592325 2.171283102207215875978363
4.542820775551804857173011 -0.02640868002251139934344337 2.164103877759016469894959
4.526984168797796748151541 -0.0006480979449602014899611824 2.177632266742756783628465
4.525506010940178569512682 0.002308217770276789395506034 2.176802206830098285195163
4.528462326655411374076721 -0.03564155110361012096520383 2.164103877759016913984169
4.517496726579324217709654 -0.01962298238190366209132698 2.168792922469243933392136
4.511795659988743878443529 -0.03564155110361012790409774 2.162443757933703469831244
4.519804944349598230246556 0.01962298238190365862188003 2.170453042294557821634271
4.51031750213112569980467 0.03398143127829353349333985 2.161613698021044971397941
4.528462326655411374076721 0.03564155110361012096520383 2.164103877759016913984169
4.508009284360852575446188 0.001944293834878237873381446 2.159953578195731083155806
4.516018568721706039070796 -0.0153704707767486348224395 2.167962862556585434958834
4.508009284360852575446188 -0.0326852353883755053498561 2.159953578195731083155806
4.585896122240975536499263 -0.006924653310829281815941272 2.192820775551803880176749
4.578716897792780571307958 0.01205023112611293412133051 2.185641551103608470896233
4.585896122240975536499263 0.03102511556305515005860229 2.192820775551803880176749
4.571537673344585606116652 -0.03564155110360887890319503 2.178462326655409952991249
4.571537673344584717938233 0.03564155110360887890319503 2.178462326655409952991249
4.557179224448195675734041 0.006924653310820689730564759 2.16410387775901558171654
4.564358448896390640925347 -0.0120502311261215210025366 2.171283102207214543710734
4.557179224448195675734041 -0.03102511556306373347036143 2.16410387775901558171654
4.192530213652948312130775 0.00518128191769209878181357 2.212651068264743337010714
4.185060427305896446625866 -0.01666666666666666990481716 2.220120854611794314337203
4.192530213652948312130775 -0.02815205141564124102782074 2.212651068264743337010714
4.170120854611791827437628 -0.01321247872154171845715531 2.235060427305896713079392
4.162651068264738185575879 -0.03160623936077218421036861 2.242530213652948134495091
4.162651068264739961932719 0.005181281917688751632866673 2.242530213652948134495091
4.177590640958840140228858 -0.0350604273058971321885835 2.212651068264737119761776
4.162651068264734632862201 -0.0350604273058971321885835 2.227590640958839962593174
4.162651068264734632862201 0.0350604273058971321885835 2.227590640958839962593174
4.177590640958840140228858 0.0350604273058971321885835 2.212651068264737119761776
4.227667279305695302582535 0.0004029158046582808163672829 2.222735636498960332119168
4.226635826506340620767332 -0.002465821403367811359697015 2.224170005102973135535649
4.224539368818371443126125 -0.001727093972571139800231688 2.226266462790942757266066
4.22347436392975694730012 0.0004029158046582808705773915 2.226928551874899575580002
4.218503951075335045572956 -0.01953540387469275899090526 2.216038129671967560341272
4.212434981243031728581627 -0.03579915473670114423043742 2.207503338436305639902457
4.21600457758270863450889 -0.01879667644389609176824862 2.219458765527844601450624
4.208937707040318443318938 -0.03373624913799162100547235 2.210664801012882652031522
4.216407493387365867931749 0.01879667644389609176824862 2.21813458735993673798248
4.207872702151703947492933 0.03506042730590447353833383 2.211326890096839470345458
4.220566856674036415597584 0.01953540387469276246035221 2.215635213867311215096834
4.211403528443677046766425 0.03373624913799161406657845 2.208937707040318443318938
4.221598309473391097412787 -0.01666666666666666296592325 2.214200845263297967591143
4.214497886841733098606255 -0.02593586912324886278868874 2.207100422631648850568808
4.214497886841733098606255 0.007397464210084470949413404 2.207100422631648850568808
4.207469786347047602248495 0.00518128191769943752947869 2.212651068264746889724393
4.214939572694095026861305 -0.01321247872153837044084668 2.220120854611801419764561
4.207469786347047602248495 -0.03160623936077618101325726 2.212651068264746889724393
4.592331894931689362238103 0.00399136959013825665804065 2.211659474658447699368935
4.584663789863379079747574 -0.01666666666666666990481716 2.219327579726757981859464
4.592331894931689362238103 -0.02934196374319507708006149 2.211659474658447699368935
4.576144226492023570074252 -0.0003724600760437200082549059 2.226516686568067449059072
4.57529276818897834289146 0.001330456530046865166322378 2.226037688341066189678941
4.580536234942940154724056 -0.02030534096699230725557861 2.216177786046549691434393
4.590023677161412685165942 -0.03466378986338020801172277 2.210329018128401656895221
4.574324889341860433944476 -0.004011134376369357955327555 2.224697349417904312929295
4.574324889341860433944476 0.004011134376369349281710175 2.224697349417904312929295
4.580536234942940154724056 0.02030534096699230031668471 2.216177786046549691434393
4.590023677161411796987522 0.03466378986338020107282887 2.210329018128401656895221
4.585896122240973760142424 -0.006924653310832503197436161 2.20717922444819336647015
4.578716897792777018594279 0.01205023112611293065188356 2.214358448896386999393826
4.585896122240972871964004 0.03102511556305836970537371 2.20717922444819336647015
4.572505552191698185993118 0.000372460076043710467275788 2.222878012267741620888728
4.573473431038815206761683 -0.002308217770278773485481683 2.224218351190903053549164
4.638340525341549280824438 -0.003991369590139876022405474 2.242331894931689717509471
4.630672420273239886512329 0.01400575360657319370916163 2.234663789863379435018942
4.638340525341549280824438 0.03200287680328626344072873 2.242331894931689717509471
4.623004315204930492200219 -0.03466378986337974310583121 2.226995684795068264349993
4.62300431520492871584338 0.03466378986337973616693731 2.226995684795068264349993
4.607668105068309039040741 0.003991369590137794354234302 2.211659474658447255279725
4.615336210136619321531271 -0.01400575360657527884677975 2.219327579726757981859464
4.607668105068309927219161 -0.03200287680328835204779381 2.211659474658447699368935
4.145021363151971449667599 0.02012817891184691745931623 2.275106815759874390181494
4.140042726303943432242249 -0.01666666666666666990481716 2.280085452607895746268696
4.145021363151971449667599 -0.01320515442148641541142418 2.275106815759874834270704
4.130085452607879403785773 -0.003247880725461185780211792 2.290042726303944675692037
4.125106815759843392754647 -0.02662394036273914646462124 2.295021363151971804938967
4.125106815759843392754647 0.02012817891181677490419766 2.295021363151972693117386
4.135064089455902980319024 -0.04004272630394462711977965 2.275106815759854406167051
4.125106815759838951862548 -0.04004272630394462711977965 2.285064089455903335590392
4.125106815759838951862548 0.04004272630394462711977965 2.285064089455903335590392
4.135064089455902980319024 0.04004272630394462711977965 2.275106815759854406167051
4.176956446167094050281321 0.0004587043890529385109164351 2.273502258221956839889799
4.176322251375336414014328 -0.001727093972569310968007139 2.274595157402767853227488
4.172104007903733702278259 -0.006709392970635504917231717 2.278813400874370564963556
4.168519959223889514987604 0.0004587043890529433898262113 2.281938745165161819272726
4.168218270236526912242425 -0.01885246502828892209424616 2.266491176263959239634005
4.16138267868123001846925 -0.0350604273059026416703432 2.257928490736099469415876
4.163541322375873932060131 -0.0238347640263551208139603 2.276960108317128472776858
4.159021389916909505757303 -0.03379203772238627973001357 2.265730782887528604874205
4.164000026764925088684777 0.02383476402635511387506639 2.270709419735561951370073
4.155437341237065318466648 0.04004272630396883692061039 2.268856127178319859183375
4.169486659820039520241153 0.01885246502828891862479921 2.266032471874908527098569
4.160748483889472382202257 0.03379203772238627973001357 2.259021389916910482753565
4.170120854611797156508146 -0.01666666666666666990481716 2.26493957269409751376088
4.162651068264741738289558 -0.02815205141563907956236967 2.25746978634704875688044
4.162651068264741738289558 0.005181281917694255910455947 2.25746978634704875688044
4.154978636848015050020422 0.02012817891187113072959392 2.27510681575988638059016
4.159957273696029744769476 -0.003247880725431041924050612 2.280085452607919727086028
4.154978636848014161842002 -0.02662394036273321717978035 2.27510681575988682467937
4.642936181131956274725781 0.007617086791742275382610661 2.264680905659784748706898
4.635872362263913970537033 -0.01666666666666666296592325 2.271744724527828385163275
4.642936181131956274725781 -0.02571624654159105141659758 2.264680905659784748706898
4.627350000690852560580879 -0.0003780564794558533697754754 2.277728057170309128309782
4.625891457985834342991893 0.002539028930581380214676068 2.276647570944746234999911
4.632607163003553907287824 -0.02053615212729530820068291 2.267270952866933697578133
4.641605724601910232252067 -0.03587236226391470744756518 2.262141876729204525986461
4.625415257960538539805384 -0.004247541940084498604535135 2.275793314439994663445077
4.625415257960538539805384 0.004247541940084499471896873 2.275793314439994663445077
4.632607163003553019109404 0.02053615212729531167012986 2.267270952866933697578133
4.641605724601910232252067 0.03587236226391470744756518 2.262141876729204525986461
4.638340525341549280824438 -0.003991369590140731241079131 2.257668105068309394312109
4.630672420273238998333909 0.01400575360657319891333206 2.265336210136619232713429
4.638340525341549280824438 0.03200287680328712386357282 2.257668105068309394312109
4.623480515230224519029889 0.0003780564794558549418686255 2.273858571709680198580372
4.623956715255520322216398 -0.001330456530047264152721853 2.274712828214431770135207
4.685319094340212764393527 -0.007617086791743482750149941 2.292936181131957518175568
4.67825527547216957202636 0.0115886088055041601430073 2.28587236226391476989761
4.685319094340212764393527 0.03079430440275182645493146 2.292936181131957518175568
4.671191456604127267837612 -0.03587236226391433274729437 2.278808543395871133441233
4.671191456604127267837612 0.03587236226391430499171875 2.278808543395871133441233
4.657063818868042659460116 0.007617086791741869457317282 2.264680905659784748706898
4.664127637736084963648864 -0.01158860880550579078307472 2.271744724527828385163275
4.657063818868042659460116 -0.03079430440275342933942326 2.264680905659784748706898
4.132276551067496583868888 0.001134316193753903776603176 2.318857765126256076371192
4.12948901267906265388774 -0.006709392970620614050913932 2.322779619708443377135154
4.118935299054170329213775 -0.01439803427916548986265077 2.334467649527087296235095
4.111169123817711046342538 -0.03219901713958606137566676 2.342233824763543914571073
4.111169123817711046342538 0.003402948581255081650365213 2.342233824763543470481864
4.121722837442601594659664 -0.02451037583104118469656818 2.315013444471982317907077
4.119531738982994184539166 -0.0400427263039539460542926 2.306112953041771884699074
4.111169123817709269985698 -0.03446764952708723794838619 2.326701474290626237007018
4.111169123817710158164118 0.03446764952708723794838619 2.326701474290626237007018
4.127297914219455243767243 0.02451037583104118469656818 2.313879128278232943927151
4.116744200594561142736438 0.03446764952708723794838619 2.310034807623959629552246
4.13008545260788828556997 -0.0166666666666666664353702 2.309957273696045643163188
4.125106815759847833646745 -0.01320515442150723729730633 2.304978636848022510719147
4.125106815759847833646745 0.02012817891182609730815756 2.304978636848022954808357
4.689927317378229432165426 -0.002087219146124627555671793 2.342014536524354095803346
4.681941853902583439150931 0.01527518723591689622787193 2.334029073048708102788851
4.689927317378229432165426 0.03263759361795844082809737 2.342014536524353651714137
4.685319094340211876215108 -0.03587236226391500582000305 2.32119145660412762310898
4.679176920079772372673688 -0.01990143531262321408004112 2.329872659795148237549256
4.688084028163022054513931 -0.03402907304870821103559564 2.33947550759377254081528
4.679176920079772372673688 0.0199014353126231724466777 2.329872659795148237549256
4.688084028163022054513931 0.03402907304870819021891393 2.33947550759377209672607
4.685319094340211876215108 0.03587236226391498500332133 2.32119145660412762310898
4.685319094340212764393527 -0.00761708679174415582285862 2.307063818868043014731484
4.67825527547216957202636 0.01158860880550416361245425 2.314127637736085318920232
4.685319094340212764393527 0.03079430440275249952764014 2.307063818868043014731484
4.67211310121173006848494 0.000695739715374833929406595 2.322808840927105933360508
4.673034745819333757310687 -0.002539028930581692898582613 2.324426225250084243612037
4.126403220719923048420696 0.0005378090523384610258106342 2.374134588332412754141387
4.126104967149214708399541 -0.001134316193755846233215401 2.374970650955460005349096
4.117742284771340521842831 -0.01559104856199351220313876 2.383871142385671326735519
4.109677855964175563485696 -0.03279552428099864747057524 2.391935571192835396914234
4.109677855964175563485696 0.001613427157011617209605991 2.391935571192835841003443
4.118040538342047973685567 -0.01833879191276097803120493 2.366906222148293270635122
4.110572616676297030835485 -0.03446764952708918083867928 2.358303984288791177448275
4.109677855964173787128857 -0.03387114238567179996808321 2.375806713578504592021545
4.109677855964173787128857 0.0338711423856717930291893 2.375806713578504592021545
4.118637045483462877371039 0.01833879191276097109231102 2.366368413095957468073038
4.110274363105588690814329 0.03387114238567179996808321 2.359140046911838428655983
4.118935299054172105570615 -0.01666666666666666990481716 2.36553235047291066095454
4.111169123817711934520958 -0.02993038475207632220786991 2.357766175236455374886191
4.111169123817711934520958 0.003402948581257018035445272 2.357766175236455374886191
4.690624136388011677922805 -0.001251036334384535543898243 2.391875172722397469016187
4.682499309110409235756833 0.01583264244374366080947425 2.383750345444794582761006
4.690624136388011677922805 0.03291632122187183179251591 2.391875172722397469016187
4.689927317378228543987007 -0.03402907304870825960785297 2.373956390426938067861329
4.682081217704539888302406 -0.01777941849350309078126031 2.38249822981600178906092
4.690345408784098779619853 -0.03375034544479484088785881 2.391179433007022403501196
4.682081217704539888302406 0.01777941849350313241462374 2.38249822981600178906092
4.690345408784098779619853 0.03375034544479486170454052 2.391179433007022403501196
4.689927317378229432165426 0.03402907304870828042453468 2.373956390426937623772119
4.689927317378229432165426 -0.002087219146124669189035217 2.357985463475645637743128
4.681941853902583439150931 0.01527518723591693786123535 2.365970926951292074846833
4.689927317378229432165426 0.03263759361795852409482421 2.357985463475645637743128
4.674095754228893895287911 0.0004170121114615462352449848 2.374512766340356240135634
4.674235118030850344439386 -0.0006957397153748960541910784 2.375069142253773968320729
4.125743461645273058024941 0.0004113051858683175292241696 2.424667843540595058016152
4.125680209712037971314658 -0.0005378090523395648520424417 2.425142400659699326581631
4.117489277038400175001698 -0.01584405629493391282069936 2.433744638519201863857688
4.109361596297999241755861 -0.0329220281474688972189746 2.441872319259601020746686
4.109361596297999241755861 0.001233915557601073745980225 2.441872319259601020746686
4.117552528971636149890401 -0.01761578090487455131030181 2.417014719919297505157374
4.10955135209770539006513 -0.03387114238567290325221393 2.40847573399302961050239
4.109361596297999241755861 -0.0337446385192016543030924 2.425616957778800042433431
4.109361596297999241755861 0.03374463851920164736419849 2.425616957778800486522641
4.117679032838106323310967 0.01761578090487454784085486 2.416603414733431876015857
4.109488100164469415176427 0.03374463851920164736419849 2.408950291112133434978659
4.11774228477134229819967 -0.01666666666666666990481716 2.416128857614327163361168
4.109677855964175563485696 -0.03171990617632060999175891 2.408064428807163537271663
4.109677855964175563485696 0.001613427157012720710577147 2.408064428807163537271663
4.690760747485638759712856 -0.001087103017231906944631281 2.44184785050287223029386
4.682608597988510368281823 0.01594193132184541436546787 2.433695701005744282952037
4.690760747485638759712856 0.03297096566092271030523619 2.44184785050287267438307
4.690624136388011677922805 -0.03375034544479486170454052 2.424374481832807681769282
4.682526631329935185021895 -0.01744604645053881436522758 2.43288899900234634188223
4.690706103046588637539571 -0.03369570100574396931403243 2.441430838391410507171031
4.682526631329935185021895 0.01744604645053885946803796 2.43288899900234634188223
4.690706103046588637539571 0.03369570100574399013071414 2.441430838391410951260241
4.690624136388011677922805 0.03375034544479488252122223 2.424374481832808125858492
4.690624136388011677922805 -0.00125103633438454942168605 2.408124827277602797437339
4.682499309110409235756833 0.01583264244374366080947425 2.41624965455520568369252
4.690624136388011677922805 0.03291632122187185260919762 2.408124827277602797437339
4.674401804052331854677504 0.0003623676724106736314265365 2.424764171724744343805469
4.674429126271857803942567 -0.0004170121114614939224901624 2.425153861616680117663236
4.125612527401927742687349 0.000402444432119227076503909 2.474789917030191688240848
4.125608097025052600770323 -0.0004113051858683749919393113 2.475196791839185284089808
4.117471555530902271868854 -0.01586177780243192697584576 2.483735777765453178744792
4.109339444413627084884411 -0.03293088890121782102982095 2.491867888882726589372396
4.109339444413626196705991 0.001207333296353969246533788 2.491867888882726589372396
4.11747598590777741378588 -0.01748041628465426752803147 2.467064680721909653016155
4.109352735544250734278648 -0.03374463851920170981424363 2.458530125172516456188987
4.109339444413626196705991 -0.03373577776545256395879235 2.475603666648177103581929
4.109339444413627084884411 0.03373577776545256395879235 2.475603666648177103581929
4.117484846661526809441511 0.01748041628465427099747842 2.46666223628979253135185
4.109348305167376480540042 0.03373577776545256395879235 2.458936999981510496127157
4.117489277038401951358537 -0.01666666666666666990481716 2.46625536148079849141368
4.10936159629800012993428 -0.0320994177757322057820133 2.458127680740399334524682
4.10936159629800012993428 0.001233915557601132292897539 2.458127680740399334524682
4.690710269323837167121383 -0.001147676811395178077604418 2.491857946135232371176471
4.682568215459069982387064 0.0159015487924031966027183 2.483715892270464742352942
4.690710269323837167121383 0.0329507743962015944849675 2.491857946135232371176471
4.690760747485638759712856 -0.03369570100574399013071414 2.474456448491384019661155
4.682598502356150937941948 -0.01741159327620905167277598 2.482981061293282998292398
4.690730460588557804157972 -0.03371589227046506431761941 2.491495578462822102494556
4.682598502356150937941948 0.01741159327620900656996561 2.482981061293282998292398
4.690730460588557804157972 0.03371589227046503656204379 2.491495578462822102494556
4.690760747485639647891276 0.03369570100574396237513852 2.474456448491384463750364
4.690760747485640536069695 -0.001087103017231932314962117 2.458152149497128124977507
4.682608597988512144638662 0.0159419313218453692626575 2.466304298994256516408541
4.690760747485640536069695 0.03297096566092269642744839 2.458152149497128569066717
4.674446352859023434689334 0.0003825589371316885124729712 2.474828911796155495039784
4.674436257226663116171039 -0.0003623676724106755829904469 2.475201375100926526329204
4.125684748639578458551114 0.000564608414917435125560119 2.524879859775339241423353
4.125765830630976793713671 -0.0004024444321192723961547189 2.525363386198857806874685
4.117795883496498277054343 -0.01553744983683740150948172 2.533897941748250559612643
4.109744854370621425232457 -0.03276872491842153234387069 2.541948970874125635077689
4.109744854370621425232457 0.001693825244746755779440273 2.541948970874125635077689
4.117714801505099053713366 -0.01763371951370340182108087 2.517312357072980510963589
4.109501608396424643387945 -0.03373577776545258477547407 2.508696719532188534884654
4.109744854370621425232457 -0.03389794174825082329061132 2.525846912622373707790757
4.109744854370621425232457 0.03389794174825079553503571 2.525846912622373707790757
4.117552637522302383388251 0.01763371951370334977937659 2.516747748658065386706539
4.109582690387822978550503 0.03389794174825079553503571 2.509180245955706656246775
4.117471555530903160047274 -0.01666666666666669419094582 2.516264222234547265344418
4.10933944441362797306283 -0.03212600003697937273150487 2.508132111117273410627604
4.10933944441362797306283 0.001207333296353962958161188 2.508132111117273410627604
4.690333591712506411397499 -0.001599689944992023493686162 2.541933281657498433503406
4.682266873370005022536589 0.0156002067033386530858774 2.533866563314997044642496
4.690333591712506411397499 0.03280010335166932966544096 2.541933281657498433503406
4.690710269323835390764543 -0.0337158922704650504398316 2.524426161594301998292167
4.682492879936802410156815 -0.0175824555854623976181017 2.533026109918467216886029
4.690484262757037114965897 -0.03386656331499734995382767 2.541550722720366195517272
4.682492879936802410156815 0.01758245558546240108754866 2.533026109918467216886029
4.690484262757037114965897 0.03386656331499734995382767 2.541550722720366195517272
4.690710269323836278942963 0.0337158922704650573787255 2.524426161594302442381377
4.690710269323837167121383 -0.001147676811395166585061389 2.508142053864767184734319
4.682568215459069094208644 0.01590154879240322088884696 2.516284107729534813557848
4.690710269323837167121383 0.03295077439620160836275531 2.508142053864767184734319
4.674350826072036113600916 0.0005332299816640085178900965 2.5248840560536995880625
4.674275490549769429549087 -0.00038255893713172244800097 2.525341950513097621922043
4.126399497820622208621444 0.001669778811413244554856528 2.575270280990789917296979
4.126952083018870176545079 -0.0005646084149165044464152574 2.576387474603954785834503
4.120006224289484819678364 -0.01332710904385427455598467 2.585003112144746317824229
4.112507780361851494888015 -0.0316635545219341590916784 2.59250155607237298127643
4.112507780361851494888015 0.005009336434225596101921241 2.59250155607237298127643
4.119453639091238628111569 -0.01890105389299640004097114 2.568889030676322793311783
4.110850024767114696544468 -0.03389794174824986572325258 2.559720807937282849309213
4.112507780361853271244854 -0.03500311214474653709327612 2.577504668217114325301509
4.112507780361854159423274 0.03500311214474655097106393 2.577504668217114769390719
4.118348468694745356799558 0.01890105389299644167433456 2.567219251864914841831933
4.111402609965362664468103 0.03500311214474655097106393 2.560838001550447717846737
4.117795883496498277054343 -0.01666666666666664908813544 2.566102058251749973294409