/*--------------------------------*- C++ -*----------------------------------*\
| =========                 |                                                 |
| \\      /  F ield         | OpenFOAM: The Open Source CFD Toolbox           |
|  \\    /   O peration     | Version:  v2012                                 |
|   \\  /    A nd           | Website:  www.openfoam.com                      |
|    \\/     M anipulation  |                                                 |
\*---------------------------------------------------------------------------*/
FoamFile
{
    version     2.0;
    format      ascii;
    class       volScalarField;
    location    "2.4";
    object      alpha.water;
}
// * * * * * * * * * * * * * * * * * * * * * * * * * * * * * * * * * * * * * //

dimensions      [0 0 0 0 0 0 0];


internalField   nonuniform List<scalar> 
96000
(
0
0
0
0
0
0
0
0
0
0
0
0
0
0
0
0
0
0
0
0
0
0
0
0
0
0
0
0
0
0
0
0
0
0
0
0
0
0
0
0
0
0
0
0
0
0
0
0
0
0
0
0
0
0
0
0
0
0
0
0
0
0
0
0
0
0
0
0
0
0
0
0
0
0
0
0
0
0
0
0
0
0
0
0
0
0
0
0
0
0
0
0
0
0
0
0
0
0
0
0
0
0
0
0
0
0
0
0
0
0
0
0
0
0
0
0
0
0
0
0
0
0
0
0
0
0
0
0
0
0
0
0
0
0
0
0
0
0
0
0
0
0
0
0
0
0
0
0
0
0
0
0
0
0
0
0
0
0
0
0
0
0
0
0
0
0
0
0
0
0
0
0
0
0
0
0
0
0
0
0
0
0
0
0
0
0
0
0
0
0
0
0
0
0
0
0
0
0
0
0
0
0
0
0
0
0
0
0
0
0
0
0
0
0
0
0
0
0
0
0
0
0
0
0
0
0
0
0
0
0
0
0
0
0
0
0
0
0
0
0
0
0
0
0
0
0
0
0
0
0
0
0
0
0
0
0
0
0
0
0
0
0
0
0
0
0
0
0
0
0
0
0
0
0
0
0
0
0
0
0
0
0
0
0
0
0
0
0
0
0
0
0
0
0
0
0
0
0
0
0
0
0
0
0
0
0
0
0
0
0
0
0
0
0
0
0
0
0
0
0
0
0
0
0
0
0
0
0
0
0
0
0
0
0
0
0
0
0
0
0
0
0
0
0
0
0
0
0
0
0
0
0
0
0
0
0
0
0
0
0
0
0
0
0
0
0
0
0
0
0
0
0
0
0
0
0
0
0
0
0
0
0
0
0
0
0
0
0
0
0
0
0
0
0
0
0
0
0
0
0
0
0
0
0
0
0
0
0
0
0
0
0
0
0
0
0
0
0
0
0
0
0
0
0
0
0
0
0
0
0
0
0
0
0
0
0
0
0
0
0
0
0
0
0
0
0
0
0
0
0
0
0
0
0
0
0
0
0
0
0
0
0
0
0
0
0
0
0
0
0
0
0
0
0
0
0
0
0
0
0
0
0
0
0
0
0
0
0
0
0
0
0
0
0
0
0
0
0
0
0
0
0
0
0
0
0
0
0
0
0
0
0
0
0
0
0
0
0
0
0
0
0
0
0
0
0
0
0
0
0
0
0
0
0
0
0
0
0
0
0
0
0
0
0
0
0
0
0
0
0
0
0
0
0
0
0
0
0
0
0
0
0
0
0
0
0
0
0
0
0
0
0
0
0
0
0
0
0
0
0
0
0
0
0
0
0
0
0
0
0
0
0
0
0
0
0
0
0
0
0
0
0
0
0
0
0
0
0
0
0
0
0
0
0
0
0
0
0
0
0
0
0
0
0
0
0
0
0
0
0
0
0
0
0
0
0
0
0
0
0
0
0
0
0
0
0
0
0
0
0
0
0
0
0
0
0
0
0
0
0
0
0
0
0
0
0
0
0
0
0
0
0
0
0
0
0
0
0
0
0
0
0
0
0
0
0
0
0
0
0
0
0
0
0
0
0
0
0
0
0
0
0
0
0
0
0
0
0
0
0
0
0
0
0
0
0
0
0
0
0
0
0
0
0
0
0
0
0
0
0
0
0
0
0
0
0
0
0
0
0
0
0
0
0
0
0
0
0
0
0
0
0
0
0
0
0
0
0
0
0
0
0
0
0
0
0
0
0
0
0
0
0
0
0
0
0
0
0
0
0
0
0
0
0
0
0
0
0
0
0
0
0
0
0
0
0
0
0
0
0
0
0
0
0
0
0
0
0
0
0
0
0
0
0
0
0
0
0
0
0
0
0
0
0
0
0
0
0
0
0
0
0
0
0
0
0
0
0
0
0
0
0
0
0
0
0
0
0
0
0
0
0
0
0
0
0
0
0
0
0
0
0
0
0
0
0
0
0
0
0
0
0
0
0
0
0
0
0
0
0
0
0
0
0
0
0
0
0
0
0
0
0
0
0
0
0
0
0
0
0
0
0
0
0
0
0
0
0
0
0
0
0
0
0
0
0
0
0
0
0
0
0
0
0
0
0
0
0
0
0
0
0
0
0
0
0
0
0
0
0
0
0
0
0
0
0
0
0
0
0
0
0
0
0
0
0
0
0
0
0
0
0
0
0
0
0
0
0
0
0
0
0
0
0
0
0
0
0
0
0
0
0
0
0
0
0
0
0
0
0
0
0
0
0
0
0
0
0
0
0
0
0
0
0
0
0
0
0
0
0
0
0
0
0
0
0
0
0
0
0
0
0
0
0
0
0
0
0
0
0
0
0
0
0
0
0
0
0
0
0
0
0
0
0
0
0
0
0
0
0
0
0
0
0
0
0
0
0
0
0
0
0
0
0
0
0
0
0
0
0
0
0
0
0
0
0
0
0
0
0
0
0
0
0
0
0
0
0
0
0
0
0
0
0
0
0
0
0
0
0
0
0
0
0
0
0
0
0
0
0
0
0
0
0
0
0
0
0
0
0
0
0
0
0
0
0
0
0
0
0
0
0
0
0
0
0
0
0
0
0
0
0
0
0
0
0
0
0
0
0
0
0
0
0
0
0
0
0
0
0
0
0
0
0
0
0
0
0
0
0
0
0
0
0
0
0
0
0
0
0
0
0
0
0
0
0
0
0
0
0
0
0
0
0
0
0
0
0
0
0
0
0
0
0
0
0
0
0
0
0
0
0
0
0
0
0
0
0
0
0
0
0
0
0
0
0
0
0
0
0
0
0
0
0
0
0
0
0
0
0
0
0
0
0
0
0
0
0
0
0
0
0
0
0
0
0
0
0
0
0
0
0
0
0
0
0
0
0
0
0
0
0
0
0
0
0
0
0
0
0
0
0
0
0
0
0
0
0
0
0
0
0
0
0
0
0
0
0
0
0
0
0
0
0
0
0
0
0
0
0
0
0
0
0
0
0
0
0
0
0
0
0
0
0
0
0
0
0
0
0
0
0
0
0
0
0
0
0
0
0
0
0
0
0
0
0
0
0
0
0
0
0
0
0
0
0
0
0
0
0
0
0
0
0
0
0
0
0
0
0
0
0
0
0
0
0
0
0
0
0
0
0
0
0
0
0
0
0
0
0
0
0
0
0
0
0
0
0
0
0
0
0
0
0
0
0
0
0
0
0
0
0
0
0
0
0
0
0
0
0
0
0
0
0
0
0
0
0
0
0
0
0
0
0
0
0
0
0
0
0
0
0
0
0
0
0
0
0
0
0
0
0
0
0
0
0
0
0
0
0
0
0
0
0
0
0
0
0
0
0
0
0
0
0
0
0
0
0
0
0
0
0
0
0
0
0
0
0
0
0
0
0
0
0
0
0
0
0
0
0
0
0
0
0
0
0
0
0
0
0
0
0
0
0
0
0
0
0
0
0
0
0
0
0
0
0
0
0
0
0
0
0
0
0
0
0
0
0
0
0
0
0
0
0
0
0
0
0
0
0
0
0
0
0
0
0
0
0
0
0
0
0
0
0
0
0
0
0
0
0
0
0
0
0
0
0
0
0
0
0
0
0
0
0
0
0
0
0
0
0
0
0
0
0
0
0
0
0
0
0
0
0
0
0
0
0
0
0
0
0
0
0
0
0
0
0
0
0
0
0
0
0
0
0
0
0
0
0
0
0
0
0
0
0
0
0
0
0
0
0
0
0
0
0
0
0
0
0
0
0
0
0
0
0
0
0
0
0
0
0
0
0
0
0
0
0
0
0
0
0
0
0
0
0
0
0
0
0
0
0
0
0
0
0
0
0
0
0
0
0
0
0
0
0
0
0
0
0
0
0
0
0
0
0
0
0
0
0
0
0
0
0
0
0
0
0
0
0
0
0
0
0
0
0
0
0
0
0
0
0
0
0
0
0
0
0
0
0
0
0
0
0
0
0
0
0
0
0
0
0
0
0
0
0
0
0
0
0
0
0
0
0
0
0
0
0
0
0
0
0
0
0
0
0
0
0
0
0
0
0
0
0
0
0
0
0
0
0
0
0
0
0
0
0
0
0
0
0
0
0
0
0
0
0
0
0
0
0
0
0
0
0
0
0
0
0
0
0
0
0
0
0
0
0
0
0
0
0
0
0
0
0
0
0
0
0
0
0
0
0
0
0
0
0
0
0
0
0
0
0
0
0
0
0
0
0
0
0
0
0
0
0
0
0
0
0
0
0
0
0
0
0
0
0
0
0
0
0
0
0
0
0
0
0
0
0
0
0
0
0
0
0
0
0
0
0
0
0
0
0
0
0
0
0
0
0
0
0
0
0
0
0
0
0
0
0
0
0
0
0
0
0
0
0
0
0
0
0
0
0
0
0
0
0
0
0
0
0
0
0
0
0
0
0
0
0
0
0
0
0
0
0
0
0
0
0
0
0
0
0
0
0
0
0
0
0
0
0
0
0
0
0
0
0
0
0
0
0
0
0
0
0
0
0
0
0
0
0
0
0
0
0
0
0
0
0
0
0
0
0
0
0
0
0
0
0
0
8.103658106678946650665043e-78
2.06865029566560868571756e-75
2.587438049985916465325182e-73
2.130795085917624883749906e-71
1.308852431091588178248863e-69
6.294102509750335616226156e-68
2.401602460240046495752566e-66
7.28593503710031702288451e-65
1.949363772148077996911147e-63
4.828473793649860394077514e-62
1.528815848234224217112055e-60
2.97141945489400802119541e-59
2.481487230031340392200163e-46
2.903661445082662314053391e-46
3.184539652887361224129683e-46
3.452474145943006029572053e-46
3.731750679005252839349994e-46
4.028846822624111139217153e-46
4.346355799239201946451418e-46
4.686025637719872745069088e-46
5.049477293185780088790364e-46
5.43838115800383942206696e-46
5.854504677233768149235205e-46
6.299729373105868233348964e-46
6.776060955085475657674629e-46
7.28563825371079492668504e-46
7.830742284454556356281662e-46
8.41380571541561476617077e-46
9.037422875649618299314018e-46
9.704360416446551888210817e-46
1.041756867743574531847576e-45
1.118019378309541007512769e-45
1.199559050531478904344117e-45
1.286733594136486360954867e-45
1.379924409312008296074173e-45
1.479538144434742754959632e-45
1.586008347129780045934992e-45
1.699797188392766720639483e-45
1.821397305672982006972988e-45
1.951333916290946616822666e-45
2.090167140836749046602282e-45
2.238493878305379988662895e-45
2.396949003554878508501657e-45
2.566208438244744157342811e-45
2.74699723160165808488039e-45
2.940095381765873412202821e-45
3.146322575195439239539367e-45
3.366511700442551229490429e-45
3.60155124592700802996165e-45
3.852540632573598114423109e-45
4.120817275816553757736657e-45
4.407446324654466430655575e-45
4.712552927545625784430603e-45
5.036312410033723777598213e-45
5.382405770744131592889421e-45
5.758971953893957511421375e-45
6.168198979660056169944155e-45
6.591270346310412622751685e-45
7.004433288692856345459791e-45
7.430470253917766142284129e-45
7.982939968543912435936995e-45
8.792429006541050184329816e-45
9.516264269506633259290953e-45
9.795375073147700715441279e-45
9.922670210131407473333831e-45
1.045896113351750403523811e-44
1.4107392048312450461985e-44
1.569373443447258343367317e-44
1.570155847222033971886064e-44
1.569196032192395021324878e-44
1.567576966063793564418159e-44
1.56653551055092733648426e-44
1.561630183355201570246844e-44
3.407214336085370457671937e-44
9.272485693697195693022289e-44
2.704229099573540148491784e-43
8.18455313583272372146468e-43
2.454952282523957081637649e-42
6.690556371368134047270298e-42
1.723755395743913420403992e-41
5.783884317475557880882539e-41
3.358724269271931259218969e-40
2.657539489942113740188633e-39
2.123860993036538318035018e-38
1.550396417133164156788145e-37
1.012845125622918896377704e-36
5.911329129171004235980796e-36
3.087560770434599507008266e-35
1.445908351576493577686125e-34
6.075740707822207297009487e-34
2.284125815640771055845281e-33
7.750365567238108688246069e-33
2.417483908426339668883501e-32
6.29230081879619659765383e-32
1.030848646024584243968348e-31
1.108642405575111451449467e-31
1.09795621550530248515173e-31
1.008747826104615714919216e-31
7.099071114991500657151728e-32
2.440040501090561746427898e-32
1.953760719208892939845573e-33
1.507404106483517995199061e-35
4.473962522876442236646566e-39
7.152875309413877846243587e-44
9.902443068219254682010816e-49
1.370592578832139644653422e-53
2.279647054347622899813748e-58
4.128216522043531929922282e-63
7.236625769244211889360232e-68
1.366219505630326352458147e-72
2.9228700007351016294877e-77
6.759113284115464880903615e-82
1.62493279867808369500445e-86
4.124200195992412067695166e-91
1.110152149372162783794863e-95
3.076951604473455287480778e-100
8.536291519449096065811837e-105
2.353724935594983793154223e-109
6.494788140662141591105209e-114
1.803400530139981667886916e-118
5.028019870112643981262391e-123
1.399871892144765034695955e-127
3.880817659882388860625452e-132
1.072594730208808327439667e-136
2.963677902055080072660791e-141
8.195475234990736409949464e-146
3.332420589544898410845355e-149
1.253522955984550016302606e-149
4.887169924616270158045562e-150
1.937689066017803022110869e-150
7.627410630418481823385635e-151
2.8850954093273025592995e-151
1.062457412036045333189265e-151
3.899809298051331259305279e-152
1.446552518098254517277391e-152
5.436307230094246642395248e-153
2.059720661253526911828603e-153
7.810969791462766115554664e-154
2.947525983751132008499822e-154
1.102762136061737204392222e-154
4.081495681457717169811217e-155
1.492081176235631118944392e-155
5.380600289657494353052807e-156
1.91168221064177451627781e-156
6.684534611611765943654105e-157
2.29808034656252325570741e-157
7.760917517641234624991983e-158
2.572638628230810576678004e-158
8.365171123245078203713286e-159
2.666614010736696985871976e-159
8.329848573637598423554258e-160
2.548869253037396433063647e-160
7.637808082008223373914956e-161
2.240830383091348140539344e-161
6.435815820676275860570876e-162
1.809302089378568354231487e-162
4.978626632701849276090565e-163
1.340891751731693488273957e-163
3.534858865917867121444959e-164
9.121464925944176052534641e-165
2.304096305891691350023866e-165
5.697931558810465081885036e-166
1.379614188131368848208754e-166
3.270921634953131777058656e-167
7.594634677498556286390012e-168
1.727122733233515521322432e-168
3.847483648369836685991268e-169
8.397058270514041476465941e-170
1.795706045403280793758599e-170
3.763248442024666194968125e-171
7.72987840255086814897501e-172
1.55642274204603465774261e-172
3.072492910049696043826488e-173
5.947384981832850316500961e-174
1.129006746263136513862368e-174
2.102160306578525549810916e-175
3.839700999160974547608082e-176
6.881050257517310593095469e-177
1.210044377483978368235239e-177
2.088337567972997050034475e-178
3.537665024643518387411529e-179
5.883196803970964213372521e-180
9.606278964155126182669045e-181
1.540306844346181762767897e-181
2.425690655130343443733709e-182
3.752378522490527634485603e-183
5.702814250445880708914248e-184
8.516344844256113609325474e-185
1.249887896313063812153947e-185
1.803093204411355394984522e-186
2.557256787071234932453446e-187
3.56636255793145689259738e-188
4.891780347273920727050214e-189
6.600988620111187815870038e-190
8.765705027263124620087595e-191
1.145985438466923035390372e-191
1.475847366897948974353275e-192
1.874000610205255796262742e-193
2.34972193368675528107484e-194
2.916778477351129555260882e-195
3.600770465630076668810512e-196
4.455614878506442241093399e-197
5.599288918524647666026724e-198
7.289764526319533883855391e-199
1.008404797783469954521492e-199
1.516744546524651733803187e-200
2.50280944212280396723138e-201
4.482472161390677172324314e-202
8.513193936894583259340317e-203
1.673944071299430992327806e-203
3.346520650900713260968448e-204
6.724143708579902413351826e-205
1.348869889421454567472048e-205
2.691544333426404787002541e-206
5.33194135164363081741698e-207
1.047564326266299369007404e-207
2.040149398441703869711455e-208
3.93746381556696978106534e-209
7.529928507878331768135017e-210
1.426795785217138595437574e-210
2.678689901541150561093259e-211
4.982806135129008687810869e-212
9.183792258870951381612289e-213
1.677159774285374255207032e-213
3.03487006981150749320316e-214
5.441624364599574490395388e-215
9.668287797713000481823597e-216
1.702209375680007168147485e-216
2.969809671817343269963431e-217
5.134595718571599342462172e-218
8.797424758222165266336712e-219
1.493778122336811966569988e-219
2.513664342601440187704741e-220
4.192069037436677509004757e-221
6.928810352308436048272893e-222
1.135029213930699012457923e-222
1.842817745313218225865407e-223
2.965469259709783183203514e-224
4.729864791062804383528903e-225
7.477504732231951099336403e-226
1.171724733841986791741253e-226
1.819967093383802670840047e-227
2.802066670623670891425729e-228
4.276398652704147464231064e-229
6.469494404437506390354998e-230
9.702025930072302615801198e-231
1.442320557871327679722811e-231
2.125571012511804716332291e-232
3.105352770265245523007436e-233
4.497536058951597089419148e-234
6.457634876525567243650287e-235
9.192084846239911056023057e-236
1.297187353851613633604489e-236
1.814871240999794803390273e-237
2.517384200542509675064252e-238
3.461941695437465241407879e-239
4.720221808502406786104808e-240
6.380918189649993770931246e-241
8.552392308789136282214914e-242
1.136530599763502430207413e-242
1.497507487853722653955479e-243
1.956394126473141025673748e-244
2.534242454164120181340724e-245
3.25498718483278464054917e-246
4.145380676785194630325839e-247
5.234776390095895146728726e-248
6.554730794848250138844697e-249
8.138397217642357457293748e-250
1.001969167836453731087401e-250
1.223222049545377677409294e-251
1.480797231327126736457059e-252
1.777579292567031376978377e-253
2.115967920076152540843208e-254
2.497694757517249644608709e-255
2.923635168294788768405636e-256
3.393624115589862790868566e-257
3.90628677622937805154816e-258
4.458895410302640936223687e-259
5.047264246937214510163983e-260
5.665693591959517991764264e-261
6.306972938909550559394243e-262
6.962450559452177664995894e-263
7.622173926310288861347592e-264
8.275101523984991262053314e-265
8.909382347642610846698134e-266
9.512694959487575393992988e-267
1.007263368908554133641752e-267
1.057712577065218444288024e-268
1.101486023445025538397696e-269
1.137570749419623336382941e-270
1.165110800701882724711461e-271
1.183440923817851180251754e-272
1.192113243756645308452571e-273
1.190915430923547479608446e-274
1.179879329788777378079349e-275
1.159279560336081904356411e-276
1.129622177592052101376371e-277
1.091624042066288911858401e-278
1.046184073362724997182421e-279
9.943479933789927157522616e-281
9.372684847815352561982302e-282
8.76162875206447190135194e-283
8.122704996960969125805347e-284
7.468117967497946634475667e-285
6.809509714114506285603374e-286
6.157637354476175604448295e-287
5.522112397461650311782082e-288
4.911208808987442707465908e-289
4.331742261350404136245777e-290
3.789018894069995337122172e-291
3.286848325178813751259999e-292
2.827612781115975780294098e-293
2.412382177843905086374177e-294
2.041063825181256700569552e-295
1.712575108558485242073037e-296
1.425027935730177549259619e-297
1.175914784475879384877331e-298
9.622876884946412101005693e-300
7.809232807296566966214842e-301
6.284689107794334247467744e-302
5.015667191625190317003729e-303
3.969542669771937823121814e-304
3.115417983124054574529182e-305
2.424674015451563540690193e-306
1.871322128324326704050787e-307
1.432183761290314899426889e-308
1.086927655835558263181716e-309
8.179952942130607623520522e-311
6.104437887047835471658162e-312
4.517327323287144175119459e-313
3.314779253377842280947497e-314
2.411908647374566834320719e-315
1.74018961866605927670746e-316
1.244947108456418883262662e-317
8.83221392444562797162685e-319
6.225721203245547703168943e-320
4.283549149443607538010851e-321
3.260833262552227191565354e-322
0
0
0
0
0
0
0
0
0
0
0
0
0
0
0
0
0
0
0
0
0
0
0
0
0
0
0
0
0
0
0
0
0
0
0
0
0
0
0
0
0
0
0
0
0
0
0
0
0
0
0
0
0
0
0
0
0
0
0
0
0
1.850319004194278419574009e-78
1.742974387044392002829987e-75
3.796569451250980489803936e-73
4.436650336002231668081757e-71
3.494205437486021808905636e-69
2.077169877792755459093412e-67
9.820998281985464428956218e-66
3.791913070500948481090136e-64
1.198470574066072622936586e-62
3.283226867170681851767988e-61
7.69662696987615015663587e-60
2.082154275679889498933968e-58
3.827421548223349253138019e-57
7.896580124310184380553333e-45
1.000683237291039811018234e-44
1.165156059575694202110199e-44
1.334010281281139118811719e-44
1.518619352639259037554159e-44
1.72300883887549025260267e-44
1.949642168033242255911667e-44
2.200739070281016000260903e-44
2.478600973397229029037336e-44
2.78570116957377062790762e-44
3.124719163290970117145364e-44
3.498562491672449778829792e-44
3.910386540775963800835157e-44
4.363614979451244452653514e-44
4.861961548933821644443689e-44
5.409453486949786690645708e-44
6.01045674212583627911406e-44
6.669703118458050864073927e-44
7.392319506162381164089724e-44
8.183859362945357219132535e-44
9.05033661022064571119921e-44
9.998262126581572261846254e-44
1.103468306198583347078817e-43
1.216722519273229615239177e-43
1.340413841888687980897034e-43
1.475434552759229190691036e-43
1.622749496936983527320553e-43
1.783401878116969702028184e-43
1.958519442494696671662102e-43
2.149320603736296472056343e-43
2.357120806287346914598251e-43
2.583341364573793081577005e-43
2.829521636902310125160449e-43
3.097326615702883120212977e-43
3.388539496175012122745419e-43
3.705059440798865718141e-43
4.048963077952315339409501e-43
4.422615387557669511594635e-43
4.828608793815474119178542e-43
5.269347542428498598705205e-43
5.74682584424833652834126e-43
6.263798390598345090197912e-43
6.825927326398155024890763e-43
7.440718421679470727459534e-43
8.109547547804278810187611e-43
8.821503824823456388163339e-43
9.569184145226403689224025e-43
1.038250318513096964133337e-42
1.13344405479436091808491e-42
1.245233333289190225866229e-42
1.358731561401108730315907e-42
1.457421962091867380331261e-42
1.549065856218080561583514e-42
1.658120446944857859475751e-42
1.810452736189647363279766e-42
2.074481354239846164510098e-42
2.5062517581409912668553e-42
2.761722830693108227331423e-42
2.809148467696565431686914e-42
2.821179258762046852392493e-42
2.825703039760001116217768e-42
6.889478734513178174657706e-42
2.174855941350536585395293e-41
6.549012730862791592919701e-41
1.926606080765777145569684e-40
5.594419334747301045364084e-40
1.479832953795778507177067e-39
3.731985539554195571587476e-39
1.250286923763414334610153e-38
7.286513447437674363205944e-38
5.685776827403265913608755e-37
4.432296044412953819230724e-36
3.143094210866011343328608e-35
1.990915972960919762314918e-34
1.125124797728792363363061e-33
5.6826863359322788826981e-33
2.569857563036669135816614e-32
1.039880755573773704501698e-31
3.761159004076988734650907e-31
1.237300322371116758888062e-30
3.689893259095215544192571e-30
8.292630001068375110593905e-30
1.109324571178486486335689e-29
1.12724849366183020423575e-29
1.099140714680329888946813e-29
9.426491091832087874214077e-30
5.427192429821637348818839e-30
1.188503485573980154445984e-30
4.412197486478191454829963e-32
1.133252564212422291279514e-34
7.968284727054542054077684e-39
9.999330166390648179197276e-44
1.520894261746570522349626e-48
2.648264219799680103785028e-53
4.314727202922132885191607e-58
7.331890286706185876790364e-63
1.426731274579350722900989e-67
3.059126872120699426049663e-72
6.83954785316263243882438e-77
1.637851895231339817664981e-81
4.271946783378793919114346e-86
1.173304476078386323241503e-90
3.273746237622872705762697e-95
9.186127360029414267622706e-100
2.599826139045088330101955e-104
7.417325933101929424524146e-109
2.120146553301884790564301e-113
6.038010327906902414658272e-118
1.71143465710389327820152e-122
4.83887470372565930878506e-127
1.36797923253578770656507e-131
3.868886252104872627921737e-136
1.093470211867705561373641e-140
3.084976707226088940609744e-145
6.076405228350000566707733e-149
2.445169241708426585305981e-149
1.105392065670908312258182e-149
4.845962397221860651804579e-150
2.064936181213741263628742e-150
8.544643020467657316172483e-151
3.480209383538814565834632e-151
1.415230733327636202667239e-151
5.776214445675656301516589e-152
2.360123365636724595734321e-152
9.600076409272321955981449e-153
3.867951351510007513597841e-153
1.538531640176996535952413e-153
6.029534188339864702777068e-154
2.325138504930151384175726e-154
8.813852053235130744303407e-155
3.281373802890472314825398e-155
1.198883676652076241791147e-155
4.295590796726705560146766e-156
1.508421001563923526279422e-156
5.188510505171085357125229e-157
1.747379650647081611911545e-157
5.759653052012338857112641e-158
1.857563526516195125158802e-158
5.860491532036366545859497e-159
1.808422009762928052610695e-159
5.457547974864190732820742e-160
1.610664508157830695023217e-160
4.648555986271784649355449e-161
1.312040944906551731500182e-161
3.621734785254867184195371e-162
9.778222502865367678073027e-163
2.58237831707977173841455e-163
6.671847448371540361386999e-164
1.686528947664541614940676e-164
4.171790400592615883080897e-165
1.00993885126118834783241e-165
2.393189574747579447149113e-166
5.551827416597581346657427e-167
1.261073512364864018372577e-167
2.805175954980570894534549e-168
6.111745804999047659770243e-169
1.304446923791654308284037e-169
2.727809459642812407532555e-170
5.589829498434915076092577e-171
1.12266504602554999437121e-171
2.210237020463588691158596e-172
4.266129772051126168055293e-173
8.074303136852724330897482e-174
1.498720653699501719824664e-174
2.728660986497143246195324e-175
4.873714593099731840992341e-176
8.541231150307022355918575e-177
1.46892277354213929350282e-177
2.479498915702506036589568e-178
4.108506802944593500328543e-179
6.683875990270108012698637e-180
1.067743512741278968316432e-180
1.675215303140609920325132e-181
2.581736079755830751922342e-182
3.908993467718201881382818e-183
5.815767541454814540495328e-184
8.503919343759472102013629e-185
1.222328631509443224238067e-185
1.727464885020643209143655e-186
2.401003445698176069412148e-187
3.283012453737164611730723e-188
4.417981379342672281361742e-189
5.854584474333464773949594e-190
7.646660491888107945860125e-191
9.857730858173558311619301e-192
1.257418030487747908198651e-192
1.593820329405276564555445e-193
2.022433992587810361654993e-194
2.601031318588798060292132e-195
3.454922601008650627264226e-196
4.85670888041782295247904e-197
7.39496702197970141346459e-198
1.232700957843847852300545e-198
2.23087649164693616451424e-199
4.288930567353305310610834e-200
8.553964057763901188911124e-201
1.737277830794053763373735e-201
3.549787033391014702806725e-202
7.245688602402874013816595e-203
1.471600179356365845719511e-203
2.967667949497814993813343e-204
5.935741136456579004557761e-205
1.176850335982135707194339e-205
2.312224245658667179949745e-206
4.501337084304424974262015e-207
8.682208123214912720868894e-208
1.659157910210088893944663e-208
3.14134112437152629911442e-209
5.892750691160190483094741e-210
1.095228736371743657261735e-210
2.016902234578252810892446e-211
3.680172632204047703043131e-212
6.65373053057681287580254e-213
1.192027656968883684097353e-213
2.116128234912691794795983e-214
3.722566873648938887472985e-215
6.489304566434317683925661e-216
1.121034693905434920323386e-216
1.919177679600249143895786e-217
3.256089960174277693909611e-218
5.474852009076971755711245e-219
9.123315567633204873429205e-220
1.506769168618372183160173e-220
2.466401094559084191399807e-221
4.001406873130209782416963e-222
6.43432026847326566358955e-223
1.025515782002363350024147e-223
1.620094473416862717604722e-224
2.536910213038402539873407e-225
3.937720665540904252543657e-226
6.058538811523320834948448e-227
9.240214173440145439473077e-228
1.3969959590283200829126e-228
2.093702107452463503116329e-229
3.110632906187567219993927e-230
4.581462261374406453788865e-231
6.689414995406788463004072e-232
9.682954265868234056049995e-233
1.389537353410454430962042e-233
1.976887305158000957281676e-234
2.788364385329704820066479e-235
3.899235863433884552270892e-236
5.406026104874927753165879e-237
7.431073620715415031564909e-238
1.012758218173233301333443e-238
1.368505736276113788192998e-239
1.83349531571611548811199e-240
2.435627573695251386964102e-241
3.208080586098551141948967e-242
4.189751244500357622612127e-243
5.425564388925369747237606e-244
6.966590924592824079567474e-245
8.869910811516811909619503e-246
1.119815472504415973456486e-246
1.4018660443689970595063e-247
1.740218766470068154034086e-248
2.142114880157840397307414e-249
2.614733385147926133572296e-250
3.164913461125957055975108e-251
3.798830673295881120632857e-252
4.521634601082833560373983e-253
5.337059582795226204798569e-254
6.247024312970522512586446e-255
7.251239735363933097278224e-256
8.346847681470790456238528e-257
9.528114645834048301315061e-258
1.078620562916279256386081e-258
1.210906185007642395953805e-259
1.348140316233167351563522e-260
1.488487118866327978098351e-261
1.629832262476795839884519e-262
1.769827417333277716744376e-263
1.905949159318933465363938e-264
2.035570598072719202404074e-265
2.156043132095966621532498e-266
2.264784927254272404599697e-267
2.359372077811576828676488e-268
2.437628001950944613782129e-269
2.497706491464835965091345e-270
2.538164002280561647189155e-271
2.558017239414584468304011e-272
2.556782832720698179486133e-273
2.534496870846101829371112e-274
2.491713192749084331110937e-275
2.429480547488283752878269e-276
2.349299935296701025329286e-277
2.253064548616649807283782e-278
2.142985661894440823215931e-279
2.021508510089972761507737e-280
1.891222605384386080006495e-281
1.754771050651171373668073e-282
1.614763222723828215163546e-283
1.473694747112877150747439e-284
1.333878016694126018680116e-285
1.197385682037432926439278e-286
1.066008630208796986679835e-287
9.412290429206427418845005e-289
8.242082497315201283818122e-290
7.157883233501186895050493e-291
6.165057439162471929508581e-292
5.266150134018987117600358e-293
4.46119839700579921374135e-294
3.748094270646357937028522e-295
3.122974870442593431989481e-296
2.580617941223282225337458e-297
2.114824190582230367089059e-298
1.718771444923731752789835e-299
1.385329665988509056100949e-300
1.107329821921459346573765e-301
8.777832702761587230827817e-303
6.900514914220783950068948e-304
5.379685905882720319921425e-305
4.159209129585984947161567e-306
3.188893944177000787409407e-307
2.424609521868108101402229e-308
1.82815388346879666219767e-309
1.366940375098762898046433e-310
1.013558465573121467221601e-311
7.452583481517579559607175e-313
5.434004170546821028811462e-314
3.929020408644217555720447e-315
2.817060040998098656860151e-316
2.002827010944932479647017e-317
1.412039615814282623256634e-318
9.864514684866328501029373e-320
6.916919041777451618471963e-321
4.940656458412465441765688e-322
0
0
0
0
0
0
0
0
0
0
0
0
0
0
0
0
0
0
0
0
0
0
0
0
0
0
0
0
0
0
0
0
0
0
0
0
0
0
0
0
0
0
0
0
0
0
0
0
0
0
0
0
0
0
0
0
0
0
0
2.993214476432244997162546e-79
2.979415291680150861369739e-76
1.56181366314731314314955e-73
3.052329915854426663128191e-71
3.415130352426279958405779e-69
2.627561034163467713042527e-67
1.539258267181626847733551e-65
7.216279299058910031698848e-64
2.792427471896886119510032e-62
8.977567311333484634820951e-61
2.514719324029165632060271e-59
5.881302973264713576861733e-58
1.476855418762350154928411e-56
2.480504885326126510634612e-55
1.444689521387894767387288e-43
1.915710592325024912930051e-43
2.31914321412624028954297e-43
2.758412942691748053426352e-43
3.261931625402523253434132e-43
3.844102261523221050877442e-43
4.516932447429415306590269e-43
5.292814475364281387710377e-43
6.185295648249201134571832e-43
7.209372392017668067423469e-43
8.381678316267006659633182e-43
9.720657541874949190499565e-43
1.124674670503335396290659e-42
1.298257251621127324979988e-42
1.49531677099446019554045e-42
1.718620729923979864157638e-42
1.971226699279624237957178e-42
2.256510576901688652736185e-42
2.57819747296519874419947e-42
2.940395449795692954703039e-42
3.347632361533524669152237e-42
3.804896064855064816521737e-42
4.317678301939173024445006e-42
4.89202256647045548916777e-42
5.534576248066611561599963e-42
6.252647426367566036776415e-42
7.054266942723433599134768e-42
7.948256349239385740768697e-42
8.944301335361171540366164e-42
1.005302978277370595535411e-41
1.128609763822928053029623e-41
1.265629105983839079926169e-41
1.41776416071550910930003e-41
1.586552059716198249204208e-41
1.773669634800221072221176e-41
1.980946952295509532532404e-41
2.210406289455460611171045e-41
2.464303260991205160500222e-41
2.745084620861710692348897e-41
3.055252123092215069114502e-41
3.39740445493721899192793e-41
3.774788050613552860199189e-41
4.191881741756655082504926e-41
4.653484042614943158302021e-41
5.161917897519938291159361e-41
5.716333688695943960658907e-41
6.319506079285572159393549e-41
6.987827208898533621951979e-41
7.747691439848797409378814e-41
8.606535258785464685821789e-41
9.527729895797745984161883e-41
1.046571040893639922899677e-40
1.142429692324983484427004e-40
1.246402709819248294869335e-40
1.371345721574513411785356e-40
1.54367657862259004496807e-40
1.78676161614092337687405e-40
2.05491735726199688026476e-40
2.25356649341456648335997e-40
2.373912145829269622021138e-40
2.415893494224260754044868e-40
6.20797521701679939415707e-40
2.137585564819079000801219e-39
6.745564256184004990468005e-39
1.993033645823067890787134e-38
5.715308187946478407351783e-38
1.483251720622807568478707e-37
3.695683566144528509399388e-37
1.247100597946745491334925e-36
7.315475793661759517210795e-36
5.630577351866575790291622e-35
4.28525398714139069446074e-34
2.956529554002329347254224e-33
1.819017862280815824434584e-32
9.971848308570035966924953e-32
4.879376175357231669361967e-31
2.134480493462675646571554e-30
8.329514822293933481295232e-30
2.910915282707840590607749e-29
9.31289996173255948814494e-29
2.594007392658986769350577e-28
4.852005973435811700790028e-28
5.576269325739116606013923e-28
5.563266473247735013503514e-28
5.265439707812447238592661e-28
4.083680537832713575851822e-28
1.793562575415334297551765e-28
2.279449504794542486965098e-29
3.576202091246191202124883e-31
2.782822664864505457514572e-34
5.683410286093187165681855e-39
9.738962981846916864604705e-44
1.481592633574988023617744e-48
2.184692892563001200808489e-53
3.672601375449171808196921e-58
7.118359711215371377209877e-63
1.413181769723624252114686e-67
2.951980257011751955965661e-72