# geometry NO_DATA 456
#  x  y  z
4.243642479395785649387562 0.0185745618623564048843555 2.074932082466570015810703
4.237284958791571298775125 -0.01666666666666666990481716 2.077929760326964192529431
4.243642479395785649387562 -0.01475877147097692798638491 2.074932082466570015810703
4.227202621716838137899686 -0.003498007482802577457203785 2.087284958791571831682177
4.223477805246316663101425 -0.02411629960770834968375453 2.093642479395785738205404
4.223477805246317551279844 0.01712028464210319997351739 2.093642479395785738205404
4.237270268659287353330001 -0.03728495879157243952928269 2.077915070194679358905887
4.227187931584552416097722 -0.03728495879157243952928269 2.087270268659287442147843
4.227187931584553304276142 0.03728495879157243952928269 2.087270268659286998058633
4.237270268659287353330001 0.03728495879157243952928269 2.077915070194679358905887
4.292144557267121740551374 -0.002139044421969302917085898 2.065119253855225434080012
4.296072278633560337368635 0.02333884617848679121632216 2.068455343611135255343925
4.296072278633561225547055 -0.02761693502242538317270615 2.068455343611135255343925
4.273741440240027777974774 -0.03441635245840195256317173 2.06493021630623818651884
4.286544004502333748973797 -0.04214455726712276750767217 2.068329925024226412233475
4.261002494939799767337263 -0.04227179519127918783105713 2.068313963141858113914395
4.261002494939799767337263 0.04227179519127917395326932 2.068313963141858113914395
4.273741440240027777974774 0.03441635245840192480759612 2.06493021630623818651884
4.286544004502333748973797 0.04214455726712275362988436 2.068329925024226412233475
4.279341993004816657730771 -0.008938461857945865368657579 2.061719545137237208365377
4.270467150108949283549009 0.008811223933789399942462239 2.061655926175158803914655
4.257728204808720384733078 -0.002043730262549380786302189 2.065039673010779175399421
4.253864102404360636455749 0.02356139826206313930834213 2.068487038808477507245698
4.253864102404360636455749 -0.02764885878716188960524391 2.068487038808477507245698
4.33050757905029293226562 -0.01370202963934112269650534 2.094209608689633572708999
4.323939376490695707389023 0.008050521073260197973953112 2.088419217379267500689366
4.33050757905029293226562 0.02980307178586152905275242 2.094209608689633572708999
4.31814898518032919128018 -0.03841921737926800445306341 2.084806753145315827424611
4.31814898518032919128018 0.0384192173792679905752756 2.084806753145315383335401
4.305790391310365450294739 0.01961350629063202816171341 2.075403897600997193961803
4.311580782620731966403582 -0.002139044421969303350766767 2.079016361834949311315768
4.305790391310365450294739 -0.02389159513457062358754435 2.075403897600997638051012
4.198365353066296989936745 0.03444128591518164084206433 2.136075932848884306736181
4.196730706132593802237807 -0.0166666666666666664353702 2.140585996023887105366157
4.198365353066296989936745 0.001107952581848307971323919 2.136075932848884306736181
4.193368172854065711874227 0.009941600109611110208662765 2.146730706132593535784281
4.191640286509240809209587 -0.02012243935631630176175122 2.148365353066296723483219
4.191640286509240809209587 0.04000563957553852217907675 2.148365353066296723483219
4.195680853761841966331758 -0.04673070613259407146689028 2.139536143653135269460108
4.192318320483313875968179 -0.04673070613259407146689028 2.145680853761842143967442
4.192318320483313875968179 0.04673070613259407146689028 2.145680853761841699878232
4.195680853761841078153338 0.04673070613259408534467809 2.139536143653135713549318
4.213607395759581208949385 -0.04456216456935502279179673 2.10702306616764811764142
4.207023066167648650548472 -0.04456216456935502279179673 2.117545022725608738767278
4.207023066167648650548472 0.04456216456935502279179673 2.117545022725608738767278
4.213607395759581208949385 0.04456216456935502279179673 2.10702306616764811764142
4.215887576899186584000745 -0.03139350538549093294626857 2.102718917715321822470287
4.212022165022577091519906 -0.003498007482802573120395095 2.105437835430644444301151
4.215887576899186584000745 0.02439749041988578670547838 2.102718917715321822470287
4.205437835430644533118993 0.004377246449254229739012079 2.115959791988605065427009
4.202718917715321467198919 0.03227274435194258522807687 2.123762830831243064722003
4.202718917715322355377339 -0.02351825145343413095422314 2.123762830831243064722003
4.347017778724882930418971 -0.008624956418129835905572733 2.107003076399384333683429
4.348508889362440399395382 0.02172615564008695959730133 2.109532820886094839352154
4.348508889362440399395382 -0.0389760684763466452862346 2.109532820886094839352154
4.34420081656573842110447 -0.04701777872488346887713817 2.105511965761825976528598
4.34420081656573753292605 0.04701777872488347581603207 2.105511965761825976528598
4.34270970592817917577122 -0.01666666666666666296592325 2.102982221275115470859873
4.339892743769034666456719 0.005068299798143683157491957 2.101491110637557557794253
4.339892743769034666456719 0.03840163313147702123240279 2.101491110637557557794253
4.377654491061822028541428 -0.0173282463316004296804973 2.144982737393423377625368
4.371353139440775414925611 0.00597056178857983954610944 2.139965474786846844068577
4.377654491061822028541428 0.02926936990876009142548142 2.144982737393423377625368
4.36633587683419932545803 -0.03996547478684692178418913 2.132336925851024744815732
4.36633587683419932545803 0.03996547478684693566197694 2.132336925851025188904941
4.355017262606575734196213 0.01467385170205042291269315 2.119691114308626556095305
4.360034525213151823663793 -0.008624956418129828966678829 2.127319663244448655348151
4.355017262606575734196213 -0.03192376453831009819328557 2.119691114308627000184515
4.182113405288761853739743 0.002394450751467527751387143 2.170281045462706170923184
4.180352540707981567891238 -0.005916179913027662731761502 2.174436360794953504438354
4.175247684860036834209041 -0.004293531782861074314050498 2.185727784084800617847577
4.171903693592872386375348 -0.02335464920099527066921219 2.192863892042399953652421
4.171903693592872386375348 0.01476758563527312030638772 2.192863892042399953652421
4.179934199334580213758272 -0.02497729733116185735219972 2.174018019421552594394598
4.183707774013652347377956 -0.03924951324636100080667234 2.164487460712485322744669
4.174829343486635480076075 -0.03572778408480085932108494 2.185309442711399263714611
4.174829343486635480076075 0.03572778408480085932108494 2.185309442711399707803821
4.184126115387052813332502 0.02497729733116185735219972 2.164905802085886676877635
4.181946909432872061529451 0.03572778408480085932108494 2.168642776044733100349049
4.185886979967833099181007 -0.0166666666666666664353702 2.160750486753638899273255
4.187899690066124946952186 -0.0008088866440278940370470218 2.155375243376819405227707
4.187899690066124946952186 0.03252444668930543764107099 2.155375243376819405227707
4.395692662850778198446733 -0.005448226333482412281350449 2.159916557315813445683261
4.397846331425388832769841 0.02357776985062956520700084 2.163372108907794633125832
4.397846331425388832769841 -0.03447422251759438976970173 2.163372108907794633125832
4.392498278986345816576886 -0.04569266285077864392372149 2.157762888741202367270944
4.392498278986344928398466 0.04569266285077864392372149 2.157762888741203255449363
4.390344610411734294075359 -0.01666666666666666296592325 2.154307337149221623917583
4.387150226547301912205512 0.00166322463935846681648556 2.152153668574610989594476
4.387150226547301912205512 0.03499655797269179968722597 2.152153668574610989594476
4.42599392147699788324644 -0.01955025811901162785533259 2.19554417959600911558482
4.41968069134448526824599 0.004871434406340795220113904 2.191088359192018941712377
4.42599392147699788324644 0.02929312693169323217334821 2.19554417959600911558482
4.415224870940495094373546 -0.04108835919201910685805146 2.184486733095934773984936
4.415224870940493318016706 0.04108835919201909298026365 2.184486733095934773984936
4.404455820403990529143812 0.01897346619187000732464909 2.173429286595860432385052
4.408911640807980703016256 -0.005448226333482433098032161 2.180030912691944600112492
4.404455820403990529143812 -0.02986991885883485964292561 2.173429286595860432385052
4.149311010334103322350074 0.04269103339788152956524314 2.243380023063776818048609
4.14862202066820806578562 -0.01666666666666666990481716 2.245656527033045080088414
4.149311010334103322350074 0.009357700064548193225055783 2.243380023063776818048609
4.147156392653982948104385 0.01373541063821664270916401 2.248622020668208598692672
4.146379754305653086987604 -0.01821994336332564967673164 2.249311010334104299346336
4.146379754305653975166024 0.04569076463975893509505966 2.249311010334104299346336
4.148103862886029169487756 -0.0486220206682089553518189 2.245138369250865739701339
4.146638234871803163628101 -0.0486220206682089622907128 2.248103862886029258305598
4.146638234871803163628101 0.0486220206682089622907128 2.248103862886029702394808
4.148103862886028281309336 0.0486220206682089622907128 2.245138369250865739701339
4.164274661515584341486829 -0.04346802714831066172251894 2.208088094073681340034909
4.158088094073680629492173 -0.04346802714831066172251894 2.221789267105184428885423
4.158088094073680629492173 0.04346802714831066172251894 2.221789267105184428885423
4.164274661515584341486829 0.04346802714831066172251894 2.208088094073681340034909
4.165639121309649972602074 -0.03109489226450506960119924 2.203265986425844147333919
4.162718540293591118484073 -0.004293531782861076048773974 2.206531972851689005210574
4.165639121309649972602074 0.02250782869878291750365129 2.203265986425844147333919
4.156531972851688294667838 0.01073567939633924064879444 2.220233145883192094061087
4.153265986425843436791183 0.03753703987798323593594318 2.230668332488850325034946
4.153265986425843436791183 -0.0160656810853047546383543 2.230668332488850325034946
4.445408289305893489995469 -0.004858428223352133368262429 2.210495829915764431916614
4.447704144652946389726367 0.02388319441587376593116865 2.214104093790368210648012
4.447704144652946389726367 -0.03360005086257802919824655 2.214104093790368210648012
4.441806528522783459322909 -0.04540828930589255879590738 2.208199974568710644007297
4.441806528522783459322909 0.04540828930589256573480128 2.208199974568710644007297
4.439510673175730559592012 -0.0166666666666666664353702 2.204591710694107309365108
4.435908912392620528919451 0.0002797237122333789960393347 2.202295855347053521455791
4.435908912392620528919451 0.03361305704556671186677974 2.202295855347053521455791
4.475832213403498016646154 -0.01965043857242389571671204 2.245482651975921228881816
4.469692128737866809728985 0.004648198712752687686289299 2.240965303951842901852842
4.475832213403498016646154 0.02894683599792926415039673 2.245482651975921672971026
4.465174780713788038610801 -0.04096530395184323769530721 2.234720104530912188067759
4.465174780713788038610801 0.04096530395184324463420111 2.234720104530912188067759
4.454517348024078060575448 0.01944020906182444830001543 2.223957557085903147253703
4.459034696048156831693632 -0.004858428223352129898815477 2.230202756506833416949576
4.454517348024078060575448 -0.02915706550852870809764639 2.223957557085902703164493
4.141027111064794041794812 0.005949575556498704238805875 2.264922464491703202327244
4.137475737199770797758447 -0.01305232328654605880591255 2.274423413913225111571137
4.13064133790160781245504 -0.0006164753097802020418219393 2.289282908889831880117072
4.127358312468468959366419 -0.02323271753294556957181172 2.294641454444915851240694
4.127358312468468071187999 0.02199976691338516657237001 2.294641454444916295329904
4.136410215922983191205731 -0.03566856550971143208217384 2.273357892636437505018421
4.140303133463842044648118 -0.04638565661987939514609991 2.262049771524854868687271
4.129575816624820205902324 -0.03928290888983203277273759 2.288217387613044273564356
4.129575816624820205902324 0.03928290888983203277273759 2.288217387613044273564356
4.141368654740629651200834 0.03566856550971143208217384 2.263115292801642475239987
4.136751759598818800611753 0.0392829088898320466505254 2.271550720946377666109584
4.144920028605652895237199 -0.01666666666666666990481716 2.253614343380120121906884
4.145261572281488504643221 0.01012106725809603507970635 2.251807171690059838908837
4.145261572281489392821641 0.04345440059142936795044676 2.251807171690059838908837
4.495262169321300405044894 -0.001684739322911210342506583 2.262228794350577221194953
4.497631084660650202522447 0.02691076333172252171843652 2.267350842683105049957248
4.497631084660650202522447 -0.03028024197754493676559839 2.267350842683105049957248
4.491621850683692684924608 -0.04526216932130040088155809 2.259859879011227423717401
4.491621850683692684924608 0.04526216932130038006487638 2.259859879011227423717401
4.489252935344342887447056 -0.01666666666666666990481716 2.254737830678699594955106
4.485612616706736055505189 -8.963196594692171581021667e-05 2.252368915339349797477553
4.485612616706736055505189 0.0332437013673864065199659 2.252368915339349797477553
4.516554694809440384517529 -0.02987603000968160407713192 2.296430724819121582669368
4.513631260176038217935002 -0.003681247038105305707800241 2.29286144963824289888521
4.516554694809440384517529 0.02251353593347099613097839 2.296430724819121582669368
4.510061984995158645972424 -0.04286144963824296827414884 2.287255021824332601454444
4.510061984995158645972424 0.04286144963824296133525493 2.287255021824332601454444
4.503569275180877795605738 0.02451004364866509258047422 2.278079318829543620239519
4.507138550361756479389896 -0.001684739322911203403612679 2.283685746643453917670286
4.503569275180877795605738 -0.02787952229448750762763609 2.278079318829543620239519
4.103316186157284661817357 -0.04559579045143281883500919 2.348911976608718088499472
4.103290128165564709661339 -0.01443850390066341374262215 2.347823953217436088181103
4.103316186157284661817357 0.01671878265010599828865878 2.348911976608717644410262
4.118674596513888452875563 -0.04088347290576582748755641 2.310649500835445735447138
4.111737524226727558129824 -0.03870742612320191011754389 2.32622814411083078667275
4.108293342062612651943709 -0.04782395321743607846665114 2.33833654723038053546702
4.111737524226727558129824 0.03870742612320190317864999 2.32622814411083078667275
4.108293342062612651943709 0.04782395321743607846665114 2.33833654723038053546702
4.118674596513888452875563 0.04088347290576582748755641 2.310649500835446179536348
4.120608454904003181695771 -0.02483328154887936428663053 2.304558263547116681024818
4.117141622772677145292164 -0.000616475309780206703891281 2.309116527094233983774529
4.120608454904003181695771 0.02360033092931895781774188 2.304558263547117125114028
4.110204550485516250546425 0.0144906198841027403917403 2.324695170369619035000142
4.106734310329681392204293 -0.007550139572432498086262953 2.335715550097886339386832
4.530906100986582529799307 0.004594644032307141495730107 2.323688543045724141933306
4.53139903351752160176602 -0.003608778970429207897524515 2.327790254547092096970573
4.530968799560517012992023 0.002748311056421382132797238 2.337927977365640064277841
4.530045633072574240429731 -0.01851299964255243013511176 2.343963988682819632458632
4.530045633072574240429731 0.02400962175539519960487667 2.343963988682819632458632
4.528564425997734232964831 -0.02487008966940301712966743 2.324955647027305616347803
4.524426480462528488146745 -0.03694211230376253513041362 2.314324991677819021163032
4.528134192040730532369253 -0.03792797736564047783591747 2.335093369845853583655071
4.528134192040731420547672 0.03792797736564047783591747 2.335093369845853583655071
4.527261087982315856947935 0.02487008966940301712966743 2.317159599197605501785802
4.524919412993467560113459 0.03792797736564047089702356 2.318426703179186976200299
4.526768155451376784981221 -0.0166666666666666664353702 2.313057887696237546748534
4.523123142447109223951429 -0.01673913473434276641405027 2.30652894384811890660103
4.523123142447109223951429 0.01659419859899055951779623 2.30652894384811846251182
4.096842410782098653498906 0.01584302749144024871630343 2.369000616709341144883183
4.09368482156419766226918 -0.01666666666666665602702935 2.379763924527819263232686
4.096842410782098653498906 -0.01749030584189308762388393 2.369000616709341144883183
4.088508809759025197649862 0.006314643056322338278418815 2.393684821564198372811916
4.08649038717175461243869 -0.02070351184120950219225143 2.396842410782098919952432
4.08649038717175461243869 0.03333279795385415966713083 2.396842410782099364041642
4.092647539779791898695294 -0.04368482156419849216089091 2.3787266427434134996588
4.087471527974619434075976 -0.04368482156419849216089091 2.392647539779792609238029
4.087471527974619434075976 0.04368482156419849216089091 2.392647539779792609238029
4.092647539779791898695294 0.04368482156419850603867872 2.3787266427434134996588
4.10262948883939682076516 -0.04888219225240024445877651 2.351515407456395756469192
4.101515407456394868290772 -0.04888219225240023751988261 2.354261177086683254344734
4.101515407456395756469192 0.04888219225240023751988261 2.354261177086683254344734
4.10262948883939682076516 0.04888219225240023751988261 2.351515407456395756469192
4.102787066639802304734985 -0.04665402948639699176602846 2.35055890387379973205384
4.102231889130600883675015 -0.01443850390066341374262215 2.351117807747599819379047
4.102787066639802304734985 0.0177770216850701608113372 2.35055890387380017614305
4.101117807747598931200628 -0.01117512740609159435645203 2.35386357737788687316538
4.10055890387379928796463 0.02104039817964198366695427 2.356050443134375171894135
4.10055890387379928796463 -0.04339065299182516544096444 2.356050443134374727804925
4.528661375777796038732959 0.001977034326353382595597985 2.373315658548557749440988
4.528313463633663715768307 -0.00267285861461865909688429 2.375640605019043505308218
4.525453996167918546689179 -0.003046076316870574909878577 2.385310367659686292540755
4.522942440846306588753123 -0.02168977730989062394084677 2.392655183829843323906061
4.522942440846306588753123 0.01559762467614947585581309 2.392655183829843323906061
4.527253109300525046876373 -0.02131655960763870899521422 2.374580250685905724594704
4.527638747665559293409387 -0.03600619194795198763081601 2.365258400189395704416029
4.524393641834780765975665 -0.03531036765968671720106187 2.384250013326548511827241
4.524393641834780765975665 0.03531036765968671720106187 2.384250013326548511827241
4.528699101998697074122902 0.02131655960763870552576726 2.366318754522533485129543
4.527290835521426970444736 0.03531036765968671720106187 2.367583346659881460283259
4.529047014142829397087553 -0.0166666666666666664353702 2.363993808052047729262313
4.529084740363730432477496 -0.01124549699562662520568868 2.356996904026023464950867
4.529084740363730432477496 0.02208783633770670939977521 2.356996904026023464950867
4.079945259368588317272497 0.002788102985713264252154442 2.422842843617124319877121
4.079563706923579502472421 -0.003551207875731812388386821 2.426012499047847104094444
4.079276241778979184005038 0.002976277586533779273558764 2.43612143631904665141974
4.079370329079390344872991 -0.01647849206584615228132762 2.443060718159522970438502
4.079370329079390344872991 0.02243104723891371082844515 2.443060718159523858616922
4.08020680155710113723444 -0.02300597752811173873910278 2.426655593681369627034883
4.081970071592405879812304 -0.0368845412090651469938507 2.416928208855179782688083
4.079919336412502595123897 -0.03612143631904660145970354 2.436764530952568730270968
4.079919336412502595123897 0.03612143631904659452080963 2.436764530952569174360178
4.081326976958884245050285 0.02300597752811173526965582 2.416285114221657259747644
4.081588519147396176833809 0.03612143631904658758191573 2.420097864285902122816196
4.081708529403892171671941 -0.01666666666666666296592325 2.413115458790934475530321
4.08309024699418721127131 -0.006800815734612527044267161 2.406557729395466971311635
4.08309024699418721127131 0.02653251759872080062230282 2.406557729395466971311635
4.499863264094067005771649 0.04848750159154033984032495 2.448624237497472933000608
4.499726528188134011543298 -0.01666666666666668378260496 2.44910701488983661988641
4.499863264094067005771649 0.01515416825820699482652021 2.448624237497472933000608
4.499423685964028862827035 0.01606098221845644880012571 2.449726528188133301000562
4.499257579645856708339124 -0.01699887930301063193594402 2.449863264094066295228913
4.499257579645856708339124 0.04912084373992353647508935 2.449863264094066739318123
4.49961263992113025267372 -0.04972652818813375757978079 2.448993126622833305106042
4.499309797697025103957458 -0.04972652818813375757978079 2.449612639921129986220194
4.499309797697025103957458 0.04972652818813375064088689 2.449612639921129986220194
4.49961263992113025267372 0.04972652818813375064088689 2.448993126622833305106042
4.516201955826414149441916 -0.04193013972710697007117986 2.409391660651516886559875
4.509391660651516531288507 -0.04193013972710697701007376 2.425438814019886368811285
4.509391660651516531288507 0.04193013972710697007117986 2.425438814019886368811285
4.516201955826415037620336 0.04193013972710696313228595 2.409391660651516442470665
4.517655520486242970434887 -0.02830954937731087334151781 2.404034930136446313042597
4.514880155447791310052708 -0.003046076316870575343559446 2.408069860272892714903037
4.517655520486242970434887 0.02221739674356972352176065 2.404034930136446313042597
4.508069860272893691899299 0.01542764007007325563480826 2.424117013641263085332866
4.504034930136446845949649 0.04069111313051355927061792 2.436129236873186165723837
4.504034930136446845949649 -0.009835832990367048001001393 2.436129236873186165723837
4.083972669327526006100015 0.008170984100633504193522683 2.474198314773106588404517
4.085614572739237893017616 -0.004887177277210336644175381 2.480727395462028361805551
4.088300767700114413116808 0.01025956719896338638353672 2.491504317433966608774654
4.089345059249279046298398 -0.01457808356833680679676135 2.495752158716983082342722
4.089345059249279046298398 0.03509721796626358303328175 2.495752158716983082342722
4.086009828994404458057943 -0.02972482804451053242655867 2.481122651717194926845877
4.083412475737354441207572 -0.03822051061054367038227753 2.468703826333544348869964
4.088696023955280978157134 -0.04150431743396686828928566 2.49189957368913272972577
4.088696023955280978157134 0.04150431743396686135039175 2.49189957368913272972577
4.083017219482188764345665 0.02972482804451050467098305 2.468308570078378672008057
4.085054379149066328125173 0.04150431743396686828928566 2.475232907022466566360208
4.081375316070476877428064 -0.01666666666666669072149887 2.461779489389456454517813
4.080419866225138747495294 -0.008803211802922577405849935 2.455889744694728094032143
4.080419866225139635673713 0.02453012153041075893433742 2.455889744694728094032143
4.494087764582790356371333 0.006367927265928210664447384 2.462280162683136985890542
4.489319827740841262198046 -0.01590380094982672687375924 2.47341602679101457695765
4.480732941193742213670248 -0.001269972144370968810192513 2.489701260599261445349839
4.476913991488592259315737 -0.02430456607696587778555397 2.49485063029963072267492
4.476913991488592259315737 0.02176462178822393539467939 2.49485063029963072267492
4.488065385180935784603662 -0.03893839488242163693332287 2.472161584231108655274056
4.49291191265719991321248 -0.04923713428316006668339355 2.460644287264811325144365
4.479478498633836736075864 -0.03970126059926157996438079 2.488446818039355523666245
4.479478498633836736075864 0.03970126059926157302548688 2.488446818039355523666245
4.494166355217105390806864 0.03893839488242160223885335 2.461898729824717246827959
4.488143975815249930860773 0.03970126059926157996438079 2.471780151372689360300683
4.498934292059054484980152 -0.01666666666666669766039277 2.45076286571683965576085
4.499012882693369519415683 0.01529811650161648495238609 2.450381432858419472609057
4.499012882693369519415683 0.0486314498349498247620204 2.450381432858419472609057
4.096604301916841883723919 -0.004818575787227672227452935 2.509319743522876677843669
4.098302150958420320137066 0.02511905946294833505416655 2.513545939921017602358688
4.098302150958420320137066 -0.03475621103740367950907242 2.513545939921017602358688
4.095098601224568923839797 -0.04660430191684267198226621 2.507621894481298241430522
4.095098601224568923839797 0.04660430191684267198226621 2.507621894481298241430522
4.09340075218299048742665 -0.01666666666666666296592325 2.503395698083157316915504
4.091895051490717527542529 0.006863869115806061661777537 2.501697849041578436413147
4.091895051490717527542529 0.04019720244913939366515621 2.501697849041578436413147
4.114515574503480266344013 -0.0327009358550399906184758 2.547216510358520480394873
4.111433021713958524401278 -0.004934581804665879450899624 2.54443302071704069433622
4.114515574503480266344013 0.02283177224570824559446436 2.547216510358520480394873
4.108649532072480070610254 -0.04443302071704079148073419 2.536473889131573233868266
4.108649532072480070610254 0.04443302071704078454184028 2.536473889131573233868266
4.102783489641478986698075 0.02294777826314644067484672 2.52573126790462598734166
4.105566979282959216845938 -0.004818575787227686105240743 2.533690399490093447809613
4.102783489641478986698075 -0.0325849298376018059464343 2.52573126790462598734166
4.449238019168857860563548 0.0427772203471107684280561 2.543539201178252273649605
4.448476038337717319848252 -0.01666666666666666296592325 2.545626629342414126710992
4.449238019168857860563548 0.00944388701377743035314527 2.543539201178251829560395
4.446728347290219929277555 0.01317128457167177774111977 2.548476038337717408666094
4.445742637073863967600573 -0.01863808709937907204245988 2.5492380191688583934706
4.445742637073863967600573 0.04498065624272262752469942 2.5492380191688583934706
4.447849175188471448905148 -0.048476038337717505810609 2.544999766193167811678677
4.44610148414097405833445 -0.04847603833771751968839681 2.54784917518847109363378
4.44610148414097405833445 0.04847603833771751968839681 2.54784917518847109363378
4.447849175188471448905148 0.04847603833771751968839681 2.544999766193167811678677
4.467290997498533755560857 -0.04206180014416062429294385 2.509592650237386646239202
4.459592650237387267964095 -0.04206180014416062429294385 2.523409907908749971738871
4.459592650237386379785676 0.04206180014416062429294385 2.523409907908749971738871
4.467290997498534643739276 0.04206180014416062429294385 2.509592650237386646239202
4.469365794450214757205231 -0.02666510562186492211411704 2.503969099927919383929975
4.465636547116986321270815 -0.001269972144370966424947733 2.50793819985583876785995
4.469365794450214757205231 0.02412516133312299360103026 2.503969099927919383929975
4.457938199855838945495634 0.0109678486760599082361356 2.52175545752720209335962
4.453969099927919117476449 0.03636298215355386609370925 2.531603615270646034929314
4.453969099927919117476449 -0.0144272848014340461519911 2.531603615270645590840104
4.136502560442502307580526 0.01421322079999481381717974 2.577710660357491523342333
4.141411195821246948867156 -0.004395950042505418486893376 2.587015245778741423521296
4.146821095909960952496931 0.01521575021993267634590197 2.597546554133328022828664
4.147322360619929426661656 -0.01566413724672878829413669 2.598773277066663389689438
4.147322360619929426661656 0.04609563768659414445538758 2.598773277066664277867858
4.14093423622110989867906 -0.03527583750916687965748508 2.58653828617860526151162
4.131360334918779741997241 -0.03772928337583873747984597 2.571098342445274465006833
4.146344136309823014130416 -0.04754655413332813107540886 2.597069594533190972640568
4.146344136309823014130416 0.04754655413332812413651496 2.597069594533190972640568
4.131837294518916792185337 0.03527583750916689353527289 2.571575302045411071105718
4.136268970297525271462291 0.04754655413332813107540886 2.580402927866524809275006
4.126928659140172150898707 -0.01666666666666665602702935 2.562270716624161170926754
4.122263393216586635503518 -0.01720529842882711352158864 2.55613535831208027460093
4.122263393216586635503518 0.01612803490450622281859872 2.55613535831208027460093
4.436768660752334447749945 0.003026331644966216011249927 2.566257670892632347658946
4.433154079109892009569194 -0.01025549492985063440575466 2.572898584180040693070168
4.423638260883834938397285 -0.008776141522263612021470536 2.586359664978298944504331
4.417737024300219417227709 -0.02846913983389649099864371 2.593179832489149294616482
4.417737024300219417227709 0.01091685678936926869042612 2.593179832489149738705692
4.432342940487139060223853 -0.02994849324148351338292784 2.572087445557287743724828
4.437415416950491575676097 -0.04358882826318397074594202 2.562240946401471486382206
4.422827122261081989051945 -0.03635966497829955235143728 2.585548526355546439248201
4.422827122261081100873525 0.03635966497829954541254338 2.585548526355545995158991
4.438226555573244525021437 0.02994849324148351338292784 2.563052085024223991638337
4.433800835308049137495345 0.03635966497829954541254338 2.568881859688879831793429
4.441841137215686963202188 -0.0166666666666666664353702 2.556411171736815646227114
4.44329903203659704047368 0.006760112834855746578865965 2.553205585868407734295715
4.44329903203659704047368 0.04009344616818907858224463 2.553205585868407734295715
4.149355796696617915131355 -0.01450140265851656597162478 2.60172683530745674218565
4.149677898348308247022942 0.01818772737143476217469562 2.602487365659841067611069
4.149677898348308247022942 -0.04719053268846788717905127 2.602487365659841067611069
4.148952440124941354326893 -0.04935579669661799284696713 2.601404733655765966204854
4.148952440124941354326893 0.04935579669661799284696713 2.601404733655765966204854
4.148630338473251022435306 -0.0166666666666666664353702 2.600644203303381640779435
4.148226981901574461630844 0.01457154691655068202982282 2.600322101651690420709429