# geometry NO_DATA 368
#  x  y  z
4.287667435357780831850505 0.009249919802354388334575397 2.175290857876728711772785
4.293833717678889883018201 0.03025068849346902039032514 2.182082868790129914771114
4.293833717678889883018201 -0.01175084888876023504755697 2.182082868790129914771114
4.263668618694937073598794 -0.03389266328916479276145424 2.197561281984100833852835
4.260492386371315554072225 -0.00543676598762827482241855 2.195122563968202378248407
4.263668618694936185420374 0.02301913131390793260111494 2.197561281984101277942045
4.282285695324300256459082 -0.02340565994938470506525618 2.17795159329985255070028
4.291821474286768633987776 -0.03766743535778131063418428 2.183778998830164574940227
4.274224028994641599865645 -0.03086078855980627436150776 2.186013259629510763204507
4.272708091629962900981354 -0.04512256396820288339988281 2.195549038591979140733201
4.274224028994640711687225 0.03086078855980657967283953 2.186013259629511651382927
4.272708091629961124624515 0.04512256396820318871121458 2.195549038591979584822411
4.282285695324299368280663 0.02340565994938468424857447 2.17795159329985210661107
4.291821474286768633987776 0.03766743535778128287860866 2.183778998830164574940227
4.278131656395312454321811 -0.002404891258270078647357737 2.169463452346416687532837
4.274762159753953127960813 0.004334102024447951742591734 2.17042805772950586629122
4.266700493424294471367375 0.01178923063486984890158027 2.178489724059164522884657
4.262008323735995141134936 -0.002404891258269756422472074 2.185586785005734444808922
4.325329341945431060878491 0.0005167018222798545022678152 2.175187359876848525175319
4.325552197339424864708235 -7.099103429102371365117669e-05 2.175481206305134307399385
4.320482439516286632397168 -0.01006852461198611686787885 2.183850035155613156234722
4.315189826299153708077938 -0.02725189310093263997392121 2.191925017577806222845993
4.315189826299153708077938 0.007114843876960410574972205 2.191925017577806222845993
4.324995744958771481947224 -0.001183895795597507275345728 2.174924753924480924638374
4.316626916108292633111887 -0.01777957142797315787108303 2.179585209342803420184964
4.311890755271813091553668 -0.03385003515561320341920037 2.188216644145649869557246
4.316626916108292633111887 0.01777957142797314399329522 2.179585209342803864274174
4.311890755271813091553668 0.03385003515561318954141257 2.188216644145650313646456
4.324995744958771481947224 0.001183895795597500119611389 2.174924753924480924638374
4.32477288956477767811748 -0.0005962029390266291271893717 2.174630907496195142414308
4.324439292578118099186213 7.09910342910164901542025e-05 2.174368301543827541877363
4.316070463727639250350876 0.009249919802354397008192777 2.179028756962150481513163
4.308035231863819980446806 0.0265127894080476947391567 2.183951818332841021685908
4.308035231863819980446806 -0.008012949803338897253324191 2.183951818332841021685908
4.24009747640618783748323 -0.005986042396007598687113216 2.215242835729140047362762
4.245048738203093918741615 0.01744476734351384575316679 2.215631886067563449671525
4.245048738203093918741615 -0.02941685213552940394987623 2.215631886067564337849944
4.237878624295765561669214 -0.004090135464394840242308149 2.241968759760161411520585
4.230986172507639864193152 0.01318071738926218823551029 2.23393751952032282304117
4.237878624295765561669214 0.03045157024291921671332872 2.241968759760161411520585
4.235968173602917552500458 -0.02364285154938718103156958 2.229204030530063107562455
4.244407527841183913608347 -0.04009747640618811087565021 2.226317030236991900693511
4.232284008972994726605066 -0.01748289466352275639549063 2.232888195159985489368637
4.23898038857255876621366 -0.03393751952032370011735907 2.241327549398251850476527
4.232284008972994726605066 0.01748289466352275986493758 2.232888195159985489368637
4.23898038857255876621366 0.03393751952032370011735907 2.241327549398251850476527
4.235968173602916664322038 0.02364285154938753491515868 2.229204030530063107562455
4.244407527841183913608347 0.04009747640618847169813321 2.226317030236991456604301
4.231658122167920588196921 -0.0002120418098653722993596205 2.218129836022211698320916
4.228170029726560308347416 0.006764143072855138827392807 2.221405886653705863409414
4.224485865096637482452024 0.0006041861869903603077247567 2.225090051283628689304805
4.224289792908074936406138 -0.0002120418098657290560844768 2.22549816528205690602249
4.262486696842843869603712 -0.04543785816537757732413993 2.206871746503324516197608
4.256871746503324338561924 -0.04543785816537757732413993 2.212212058638653999764756
4.256871746503323450383505 0.04543785816537786181879 2.212212058638653111586336
4.262486696842842981425292 0.0454378581653778756965778 2.206871746503324072108398
4.263510971596349286016903 -0.03420795748633949362460527 2.202281070917310845658221
4.260177092174140867086862 -0.005436765987628291302291572 2.204562141834621513680759
4.263510971596348397838483 0.02333442551108261958647816 2.202281070917310401569011
4.254562141834622224223494 -0.005986042396007664606605303 2.209902453969950997247906
4.252281070917310223933328 0.02278514910270324628216443 2.212961695187968924614097
4.252281070917311112111747 -0.034757233894718866928919 2.212961695187969368703307
4.33736829728817419038478 0.01030596623727893061672756 2.226118019163797256965154
4.343684148644086917556706 0.0310075968587873070092531 2.233288484259857931135684
4.343684148644086917556706 -0.01039566438422944404107451 2.233288484259857487046474
4.330316553004760926626204 -0.03736829728817504803206617 2.219802167807884973882437
4.330316553004760926626204 0.03736829728817504109317227 2.219802167807884973882437
4.324000701648847311275858 -0.01666666666666666990481716 2.212631702711824743801117
4.316948957365434047517283 -0.02270022732381107855026414 2.20631585135591201662919
4.316948957365434047517283 0.01063310600952226299409364 2.20631585135591201662919
4.363554215582979622922721 -0.02906438379931542553835655 2.242618599382294686250816
4.367849208718046938315638 -0.01049385170139247383525039 2.235237198764589372501632
4.363554215582979622922721 0.008076680396530458785897544 2.242618599382294686250816
4.360467808100342068655664 -0.03523719876458959732179466 2.239438249167601036049291
4.360467808100342068655664 0.03523719876458962507737027 2.239438249167601036049291
4.357381400617705402567026 0.02887649833520188752400415 2.236257898952906941758556
4.36476280123540938404858 0.0103059662372789566375797 2.232056848549895278210897
4.357381400617705402567026 -0.008264565860644000269696896 2.236257898952906941758556
4.222429256546942788475008 -0.02300042964732352396284298 2.295429686194267127063995
4.218070098982071414184247 0.00119227607454338788151027 2.290859372388533987674464
4.222429256546942788475008 0.02538498179641021992858363 2.295429686194267127063995
4.236822217469566886904886 -0.03533975441973249281835123 2.271898525441602867402935
4.22646883924733618442815 -0.02619912680826599199468419 2.283994878302536335468176
4.228068187827807022927118 -0.04085937238853350195189051 2.293331422179069267741625
4.22646883924733618442815 0.02619912680826607526141103 2.283994878302536335468176
4.228068187827807022927118 0.04085937238853357827972346 2.293331422179069267741625
4.236822217469566886904886 0.03533975441973249975724514 2.271898525441602867402935
4.237177506846062868817171 -0.005492370363803638147470743 2.257330122790134119270533
4.229583937608232702132227 0.01318071738926218823551029 2.264660245580268238541066
4.237177506846062868817171 0.03185380514232801635321479 2.257330122790134119270533
4.219230559386000223298652 0.007526039055200247143706527 2.276756598441201706606307
4.216470750401599687506859 -0.002006421086399077548245717 2.281522828512001499490225
4.387269350106132392852487 0.01027262207839502519690633 2.276200294266397694542547
4.393634675053066374061927 0.03087530551786145729953326 2.283304613691995221813613
4.393634675053066374061927 -0.01033006136107140517099712 2.283304613691995221813613
4.380054415869036432695793 -0.03726935010613309506855018 2.269834969319464157422317
4.380054415869036432695793 0.03726935010613309506855018 2.269834969319464157422317
4.373689090922102451486353 -0.0166666666666666664353702 2.262730649893866630151251
4.366474156685006491329659 -0.02322450159525939888949253 2.256365324946933093031021
4.366474156685006491329659 0.01010883173807393051180092 2.256365324946933093031021
4.425072400012664886048697 0.0001135274978145084867012932 2.275041127485148084730326
4.425121345629692726220128 -1.563626375888113421985803e-05 2.275105709365934814059074
4.419808074561049515693867 -0.01061090587352883987670715 2.283446860831148228498932
4.414445857875378464996174 -0.02739110003801001336221077 2.291723430415574469520834
4.414445857875378464996174 0.006169288290952337078243417 2.291723430415574469520834
4.425003923168651098762894 -0.0002504811858422809523090635 2.274988286904893186601839
4.416662771703437684323035 -0.01690151158875006706661104 2.280132416075970613889012
4.411417977478809149260996 -0.03344686083114783992087382 2.288526408121438482368148
4.416662771703438572501454 0.01690151158875007053605799 2.280132416075970169799803
4.411417977478809149260996 0.03344686083114784685976772 2.288526408121438482368148
4.425003923168651098762894 0.000250481185842282036511236 2.274988286904893186601839
4.424954977551623258591462 -0.0001213174242688913178353852 2.274923705024106457273092
4.424886500707609471305659 1.563626375888223536268946e-05 2.274870864443851559144605
4.41654534924239694504422 0.01027262207839502866635328 2.280014993614928542342568
4.408272674621198206068584 0.02706060616933059215227786 2.285211963366260867758228
4.408272674621198206068584 -0.006515362012540533084847816 2.285211963366260867758228
4.194655476163354990148946 0.02751807780585265039707821 2.332862601642498034948403
4.189310952326708914483788 -0.01666666666666673929375619 2.333414515066281058608411
4.194655476163354990148946 -0.005815255527480679004215247 2.332862601642498034948403
4.188338586898868953767305 0.01472193581098616213531649 2.339310952326709269755156
4.192710745307673292359141 -0.007922349849056273610181655 2.344655476163354457241894
4.19271074530767418053756 0.0373662214710286655350302 2.344655476163354457241894
4.194248853390225129089686 -0.03931095232670916983508391 2.338352416129796829125098
4.193276487962384280194783 -0.03931095232670917677397782 2.344248853390225040271844
4.193276487962384280194783 0.03931095232670909350725097 2.344248853390225484361054
4.194248853390225129089686 0.03931095232670909350725097 2.338352416129796829125098
4.222225034056259929116095 -0.04112888585229937388199062 2.313295562685655504253646
4.213295562685654971346594 -0.04112888585229937388199062 2.324065792091893456472462
4.213295562685654971346594 0.04112888585229944327092966 2.324065792091893012383252
4.222225034056259929116095 0.04112888585229945714871747 2.313295562685654616075226
4.222294499815060220271334 -0.02326994311108940283183699 2.304435557073850393550174
4.217800585518304501420062 0.00119227607454338788151027 2.308871114147700520646822
4.222294499815059332092915 0.02565449526017609185868373 2.304435557073850393550174
4.20887111414769954365056 0.004873792145810303122477336 2.319641343553938916954849
4.204435557073850304732332 0.0293360113314430070996508 2.325976015886326742077017
4.204435557073850304732332 -0.01958842703982248412142297 2.325976015886327186166227
4.437093845101361289096076 0.01376278272154428036766483 2.32812087959274416348876
4.44354692255068073336588 0.03418996115623897102953066 2.336882526837530171803792
4.44354692255068073336588 -0.006664395713150412028924485 2.336882526837530171803792
4.429908136280582553467866 -0.03709384510136136403612994 2.321667802143425163308166
4.429908136280582553467866 0.03709384510136136403612994 2.321667802143425163308166
4.423455058831263997376482 -0.0166666666666666664353702 2.312906154898638710903924
4.416269350010485261748272 -0.02351706077216747861613477 2.30645307744931971072333
4.416269350010485261748272 0.009816272561165857724052586 2.30645307744931971072333
4.454212471379109139490993 -0.0420510443178670895170157 2.346263515696976220681336
4.457710962144089350545073 -0.01619067959058049024911874 2.342527031393952796634039
4.454212471379109139490993 0.009669685136705966771453191 2.346263515696976220681336
4.453974477841065926497777 -0.04252703139395311998649518 2.344811573724415065811399
4.453974477841065926497777 0.04252703139395326570326716 2.34481157372441462172219
4.453736484303022713504561 0.03962314744883088657445569 2.343359631751853910941463
4.457472968606046137551857 0.01376278272154442608443681 2.341075089421391197674893
4.45373648430302360168298 -0.01209758200574218012235406 2.343359631751853910941463
4.182194709199671400767784 -0.01122178103330974049955948 2.393416490232981530539291
4.175972619250362782850061 0.008944532765987443442834426 2.386832980465963593985634
4.182194709199671400767784 0.02911084656528463779356919 2.393416490232981974628501
4.188616123551494929699857 -0.03461393343674702693935075 2.372921822312668460597251
4.179505332079686219515224 -0.02144691390271089015406858 2.383004979212317131498367
4.184617898514386702402135 -0.03683298046596386599027539 2.39197861259735722327946
4.179505332079686219515224 0.02144691390271087974572772 2.383004979212317131498367
4.184617898514386702402135 0.03683298046596385211248759 2.39197861259735677919025
4.188616123551494929699857 0.03461393343674702693935075 2.372921822312668460597251
4.189081635759279720332415 -0.003225330959094127678682407 2.357693033281626604491521
4.181080367802079145178595 0.01472193581098623152425553 2.36538606656325267607599
4.189081635759279720332415 0.03266920258106659202823607 2.357693033281626604491521
4.171969576330270434993963 0.003499647132630517507023704 2.375469223462901346977105
4.170860052815662299963151 -0.001280600103413703609589458 2.377859347080923502204541
4.446216108508496134277266 0.01844835574011148560114037 2.372232247231615076543676
4.442432217016992979097267 -0.01666666666666665602702935 2.380440286378551650869895
4.446216108508497022455686 -0.01488497759322184900432351 2.372232247231615076543676
4.434884017657990895600051 0.001570267948662671612242159 2.392432217016992712643741
4.431119709790492855461252 -0.02419528240166343019401651 2.39621610850849631191295
4.431119709790492855461252 0.02733581829898876214279824 2.39621610850849631191295
4.438681957710572945075 -0.04243221701699274872598977 2.376690027072131616847628
4.431133758351570861577784 -0.04243221701699276260377758 2.388681957710572678621475
4.431133758351570861577784 0.04243221701699276954267148 2.388681957710573122710684
4.438681957710572945075 0.04243221701699276954267148 2.376690027072132060936838
4.454781908122797950966287 -0.04126151023990196758939319 2.354543914584755093244439
4.454543914584755626151491 -0.04126151023990196758939319 2.359218650612981083014574
4.454543914584754737973071 0.04126151023990211330616518 2.359218650612981083014574
4.454781908122797950966287 0.04126151023990211330616518 2.354543914584755093244439
4.454845231956134909978573 -0.04078552316381593018101981 2.354369244880048839263509
4.458976483298140891520234 -0.01619067959058047637133093 2.358738489760097589709176
4.454845231956134909978573 0.008404163982654819578521632 2.354369244880048395174299
4.458738489760097678527018 -0.00731719461021445617687764 2.363413225788323579479311
4.454369244880049372170561 0.01727764896302083977297492 2.363718716936500374714569
4.454369244880049372170561 -0.03191203818344991172128999 2.363718716936500374714569
4.178240037145306118304688 -0.01609329877381377588152489 2.444333335919119942758471
4.172620014693972478880823 0.005906706397759621529619523 2.438666671838239707881257
4.178240037145306118304688 0.0279067115693330432268926 2.444333335919119942758471
4.181955721067938114288154 -0.03720772738608091323442295 2.419150121351612003905984
4.174816785432491350604778 -0.02587439922432100206095562 2.430150123937398820572753
4.179707335657745659318607 -0.03866667183824008813264328 2.440420654297105862440276
4.174816785432491350604778 0.02587439922432097083593305 2.430150123937398376483543
4.179707335657745659318607 0.03866667183824007425485547 2.440420654297105862440276
4.181955721067938114288154 0.03720772738608089935663514 2.419150121351611559816774
4.182007335739613473890586 -0.01159652795342679468260094 2.406396136306959476769407
4.175597872330245152738826 0.008944532765987439973387474 2.412792272613918598267446
4.182007335739613473890586 0.0294855934854016885071637 2.406396136306959476769407
4.16845893669479838905545 0.005333338504906720567433354 2.423792275199705414934215
4.167729464468719058345414 -0.003874394052747601614045125 2.428396141478532666013734
4.434785671214577007503976 0.001561580345025164601180379 2.416775909130450372686028
4.431064020866057440173336 -0.009004881042062483006982454 2.422059139823994122764361
4.419690430295714733688328 -0.01374230009862219964444918 2.434894913678358641107025
4.412038490073890706355542 -0.03197054711031403761989367 2.442447456839179409371354
4.412038490073890706355542 0.004485946913069666953932657 2.442447456839179409371354
4.423550792877204429487392 -0.02723312805375432965604432 2.414545911835141112078418
4.423555136679022226076086 -0.04233821437539579679576462 2.405431788329295272887975
4.412177202306861723002385 -0.03489491367835853563583726 2.427381685689505630421081
4.412177202306861723002385 0.03489491367835850788026164 2.427381685689505630421081
4.431068364667876124940449 0.0272331280537542949615748 2.412945016318148283573919
4.419833486330504435102284 0.03489491367835850788026164 2.410715019022839022966309
4.43479001501639480409267 -0.01666666666666668031315801 2.407661785624604089406375
4.431072708469693921529142 -0.006091517675941555617913359 2.403830892812302000294267
4.431072708469693921529142 0.02724181565739178245699748 2.403830892812302444383477
4.18712936156101278584174 -0.005617162882126276735039738 2.492746524443139044535656
4.179444894115796671485441 0.0132092193374857141963119 2.485493048886278533160521
4.18712936156101278584174 0.03203560155709771900545135 2.492746524443139044535656
4.17942873032887085571474 -0.03847176357158059445406906 2.468142043796657691956398
4.175395519353518380967216 -0.02396481245785926986191505 2.477555234906463788036035
4.184569344141384483748425 -0.0354930488862786747139566 2.488457783358921204808212
4.175395519353518380967216 0.02396481245785921088131687 2.477555234906463788036035
4.184569344141384483748425 0.03549304888627864695838099 2.488457783358921204808212
4.17942873032887085571474 0.03847176357158055975959954 2.468142043796657691956398
4.1783374912786364063777 -0.01589839050715428220295067 2.455764118214209368318279
4.172814922960633055026847 0.005906706397759605049746501 2.461528236428419447179294
4.1783374912786364063777 0.02771180330267353913997752 2.455764118214209368318279
4.168781711985279692100903 0.002159715552945286332064967 2.470941427538225099169722
4.170271069327929680525813 -0.005138430238247280665286887 2.474590500433821560477554
4.396552067980087130649736 0.02842198452813285425300194 2.481869916548046450799347
4.393104135960173906028103 -0.01666666666666672194652143 2.48576306024415316642262
4.396552067980087130649736 -0.004911348805200487291355849 2.481869916548046450799347
4.386197561687814605591029 0.002853518121949300684336848 2.493104135960173550756735
4.382738919435369417954007 -0.02358395117155753090143477 2.496552067980086775378368
4.382738919435369417954007 0.02929098741545619125070665 2.496552067980086775378368
4.389677606502075946082186 -0.04310413596017355353229306 2.482336530786056094655123
4.382771032229717533823532 -0.04310413596017355353229306 2.489677606502076034900028
4.382771032229717533823532 0.04310413596017349802114182 2.489677606502076034900028
4.389677606502075946082186 0.04310413596017351189892963 2.482336530786056094655123
4.426214131615630265059735 0.0003600624830517975866368829 2.474145930867421405707773
4.425877112670104196467946 -0.001034100374103929294994364 2.474843012295999233884913
4.42147398696768423320691 -0.007772151030734497124952131 2.47924613799841875305674
4.417407880210790338537663 0.0003600624830517309624133837 2.482952182272260444051426
4.417882116861093777515634 -0.01806082952382239564803612 2.466848016486989259021811
4.410830935570256627897834 -0.03436743370743726433413912 2.458334651912130297546355
4.412960622392825271731454 -0.02479888018045296044222781 2.48005836437420601470194
4.409031733340707859269969 -0.03369339581638513408945457 2.468357324291354792933362
4.413478991158673814254598 0.02479888018045289799218267 2.471251142189408334104428
4.404965626583814852779142 0.04110548436406777361717957 2.472063368565196039838838
4.418825931379267046850146 0.01806082952382239564803612 2.466329647721139828320247
4.410493916624730559306045 0.03369339581638513408945457 2.459031733340708569812705
4.419162950324793115441935 -0.0166666666666666664353702 2.465632566292562444232317
4.411774750088429897232345 -0.02937486639118491726918592 2.457816283146281310934
4.411774750088429897232345 0.00395846694214841993836318 2.457816283146281310934
4.404447257817965422077577 0.02642333293202711597125187 2.480870590749993276347141
4.408894515635932265240626 0.001984515234625949808844325 2.483764408648047705696627
4.404447257817966310255997 -0.02245430246277515043407114 2.48087059074999372043635
4.185256634282140453251486 -0.006335140451065688661780317 2.519909128825659649919544
4.192628317141069871354375 0.01225482716440831967852354 2.517703209074530157352001
4.192628317141069871354375 -0.02492510806653972649238327 2.517703209074530601441211
4.190899593476480333720247 -0.03525663428214068084720623 2.512537445966730231816655
4.190899593476479445541827 0.03525663428214070166388794 2.512537445966729343638235
4.183527910617550027438938 -0.01666666666666664214924154 2.514743365717859280294988
4.189170869811889019729279 -0.001534146380373566098676008 2.507371682858929418102889
4.189170869811889019729279 0.0317991869529597667720644 2.507371682858929418102889
4.225895712116990665663252 -0.01900913674781090634269276 2.544904848864801838459471
4.220590582761292175462131 0.004133894315126581883723667 2.539809697729603854554625
4.225895712116990665663252 0.02727692537806411868239742 2.544904848864801838459471
4.215495431626094635646496 -0.03980969772960420149932048 2.533403945305936044718464
4.215495431626094635646496 0.03980969772960415986595706 2.533403945305935600629255
4.205095151135197717451319 0.01680789061187177441114571 2.521903041747069806888248
4.210190302270396145445375 -0.006335140451065758050719356 2.528308794170738060813619
4.205095151135198605629739 -0.02947817151400325408339143 2.521903041747069806888248
4.385313374270758401962667 0.001291030510360138133796326 2.51597765623960212266752
4.381124960018149216978145 -0.009667859015578553205649825 2.521457101002571477010861
4.369059432252718977451877 -0.01446319651528140022567204 2.534624363843693828357573
4.361182318739897922910131 -0.03242089369230826551016023 2.542312181921847269450154
4.361182318739897922910131 0.003494500661745466793539627 2.542312181921847269450154
4.373464512956213745553669 -0.02762555619260542022486149 2.513796653940635561497174
4.374245756762008774387596 -0.04300119234891187913749633 2.504817805352122395134984
4.361398985190783506027401 -0.03462436384369352998513492 2.526963916781758356933096
4.361398985190783506027401 0.03462436384369352998513492 2.526963916781758356933096
4.381906203823943357633652 0.02762555619260535777481635 2.51247825241405786655946
4.370057342509398701224654 0.03462436384369353692402882 2.510297250115091305389114
4.386094618076553430796594 -0.01666666666666673235486229 2.50699880765108851221612
4.382687447629739274645999 -0.00414528952913882121900091 2.50349940382554425610806
4.382687447629738386467579 0.02918804380419451338646297 2.50349940382554425610806
4.239830521556257281190483 -0.002437507435598324119496727 2.592268028991855377540787
4.231513217290345352239456 0.01543188388144591839667985 2.584536057983710666263732
4.239830521556257281190483 0.03330127519849016004549469 2.592268028991855377540787
4.22938903110108999072736 -0.03883036976239764154206213 2.568988750610192717260816
4.226720721618336895630819 -0.02336642774610855205486004 2.577923446268715057527743
4.237185181773591935439072 -0.03453605798371090634946157 2.589005297816580508651896
4.226720721618336895630819 0.02336642774610850348260271 2.577923446268715057527743
4.237185181773591935439072 0.03453605798371091328835547 2.589005297816580508651896
4.22938903110108999072736 0.0388303697623975929698048 2.568988750610192717260816
4.226385376100594726267445 -0.01802980878060434638543441 2.555584815118800978694935
4.221569910728498520313678 0.004133894315126573210106287 2.561169630237602135025554
4.226385376100594726267445 0.02629759741085755178624517 2.555584815118800978694935
4.218901601245746313395557 0.001202724650377524039102095 2.570104325896124475292481
4.221048757135090312431203 -0.005497036429064308671321726 2.57345420643584521513958
4.342794386389877914211866 0.006061478834406436658199802 2.563267092444528660877268
4.335588772779756183695099 -0.01666666666666666296592325 2.570825125807081779072405
4.342794386389877914211866 -0.02727185449892689100837018 2.563267092444528660877268
4.320840772388370609746744 -0.01282933411610346838283014 2.585588772779756627784309
4.313298385607107654493575 -0.03175144022919312858377339 2.592794386389878358301075
4.313298385607107654493575 0.006092771996986189216027885 2.592794386389878358301075
4.328396232394753795347242 -0.03558877277975631969741954 2.563632585422078946635338
4.313648232003368221398887 -0.03558877277975633357520735 2.578396232394753795347242
4.313648232003368221398887 0.03558877277975632663631345 2.578396232394753795347242
4.328396232394753795347242 0.03558877277975631969741954 2.563632585422078946635338
4.37549479469056823432993 0.0001288679242175465539197582 2.574634073233647235667831
4.375344048288447140748758 -0.0004303607284611421762016148 2.574913687559986730235551
4.374745150749220101715764 -0.0007674343499923822961572561 2.575512585099213325179335
4.374296999612115044442362 0.0001288679242175472044410617 2.57583186831210086964461
4.367286028228995142796975 -0.01722589531934535719837065 2.566855667500534732283768
4.359989996009245416530575 -0.03376369406179447613114419 2.558457900205093338286133
4.366347383453778263628919 -0.0175629689408765936320389 2.569017837497763245835358
4.358737514531431322950539 -0.03346220125755088037333707 2.56064053422542414750751
4.366687130689768991942401 0.01756296894087659710148586 2.567454565039761327227552
4.358289363394326265677137 0.03410076768332571256481245 2.560959817438311247883576
4.368048016068697414482358 0.0172258953193453537289237 2.566515920264544892148706
4.359839249607123434770983 0.03346220125755088037333707 2.558737514531431944675433
4.36819876247081939624195 -0.0166666666666666664353702 2.566236305938205397580987
4.360751983848947688215958 -0.03069950245348692166591498 2.558118152969103054061861
4.360751983848947688215958 0.002633830879846405133293263 2.558118152969103054061861
4.357949616158336425542075 0.004573473737975829525592708 2.562523089896313166491382
4.365899232316673206355517 -0.01286062727868321660384954 2.569337120710650790300633
4.357949616158336425542075 -0.03029472829534226099856831 2.562523089896313166491382
4.245741643083701610805747 -0.01504811619418084701893523 2.605067632152541889922759
4.247870821541850361313664 0.0140268602228533576653513 2.603747728930635219057876
4.247870821541850361313664 -0.04412309261121505343794524 2.603747728930635219057876
4.247253430149240394086974 -0.04574164308370086418076284 2.602938453694392251236422
4.247253430149240394086974 0.04574164308370087805855064 2.602938453694392251236422
4.245124251691091643579057 -0.01666666666666666296592325 2.604258356916299366190515
4.246636038756630426860283 0.01117352696514679367967293 2.602129178458149727504178
4.246636038756630426860283 0.04450686029848012481568986 2.602129178458149727504178
4.292188425847934141188489 0.003052012089603532707382527 2.610863586241667810838862
4.284376851695869348191081 -0.01666666666666666990481716 2.618714431892736449469794
4.292188425847934141188489 -0.03028132124372980363280483 2.610863586241667810838862
4.275181460724304827181186 -0.001724115276461520365747226 2.626905576000767794653257
4.273797643904805099168698 0.001043518362537500460476836 2.627245874457729613027368
4.276000013351016981744124 -0.03437685169587083311437681 2.610337593547883638933627
4.266326368209703012723821 -0.01943430030566568531003036 2.618859758722408503928136
4.259333346684350374289352 -0.0343768516958708261754829 2.610142621920593875017857
4.266804622379453348912648 0.01943430030566568531003036 2.618528737655914540027879
4.257949529864850646276864 0.03505744860979485150176416 2.610482920377555693391969
4.276000013351017869922543 0.03437685169587083311437681 2.610337593547884083022836
4.257471275695101198266457 0.003342665748947335011692639 2.610813941444049213203016
4.264942551390203284711333 -0.01504811619418084875365871 2.619200057179370322302248
4.257471275695101198266457 -0.03343889813730903382005266 2.610813941444049213203016
4.326195130248563280872531 0.000191073201178535275130202 2.623995942952613624754576
4.32574087002516449729228 -0.001099593647974853082363578 2.624641276377190468593881
4.324910725183676696303792 -0.0005606960350005172006096488 2.62547142121867782549316
4.324534840565587678895554 0.0001910732011785359256515054 2.625656232635589226731554
4.317660553785084509570424 -0.01795733351582005921098784 2.616560960137110036782815
4.311150350126443875353743 -0.03443292698130819007307224 2.608132090203187480881297
4.316481855249755028580694 -0.01741843590284572473869673 2.618046798148288889507285
4.308777423627763170088656 -0.03352440653451187191347316 2.609781670491297056457825