# geometry NO_DATA 664
#  x  y  z
4.197243383460595111955627 0.0335375628325274011132251 1.986294179371931978295152
4.19448676692118826991873 -0.01666666666666666990481716 1.989012164876858168582885
4.197243383460593335598787 0.0002042294991940659114500189 1.986294179371931978295152
4.188737057451476175629068 0.005167247727240635579715189 1.994486766921189868639885
4.185743964521167370662624 -0.02265285252728288512003019 1.997243383460594490230733
4.185743964521168258841044 0.03298734798176415627946056 1.997243383460594934319943
4.191970237825701772749198 -0.04448676692119019060456253 1.986495635781372115502563
4.186220528355988790281117 -0.04448676692119019060456253 1.991970237825703371470354
4.186220528355989678459537 0.04448676692119019060456253 1.991970237825703371470354
4.191970237825701772749198 0.04448676692119019060456253 1.986495635781372115502563
4.243642652886646438048501 0.0123155052977845392431222 1.968672852411137874639735
4.237285305773292876097003 -0.0166666666666666664353702 1.974800405535538594392619
4.243642652886646438048501 -0.02101782803554879189289473 1.968672852411137874639735
4.223657045141354871020667 -0.01058985459720835492491986 1.984246899738563607584751
4.21638613162277042789583 0.003951972439959559879607554 1.987565840817187901023999
4.231429322980563512146546 -0.03728530577329289968924186 1.968944422742808786352953
4.213347725588041825517394 -0.03120849370383458470934457 1.985129644807585691523855
4.214762656313896016513354 -0.03728530577329290662813577 1.975954720936231812089545
4.21780106234862550707021 0.03120849370383458470934457 1.97839091694583402158969
4.207491742795312461566937 0.04392318793054168085676636 1.979273662014856327573398
4.231429322980563512146546 0.03728530577329289968924186 1.968944422742808786352953
4.20303840603472878001412 0.03297398384187889830432283 1.986012389876607997507563
4.206076812069458270570976 0.005717462578003881280841458 1.988448585886209984963102
4.20303840603472878001412 -0.02153905868587113747736339 1.986012389876607997507563
4.29317424663859981137648 0.010150403492423108048337 1.966976156853823320957986
4.286348493277198912210224 -0.0166666666666666594964763 1.973249448384811532974936
4.29317424663859981137648 -0.02318292984091022482240341 1.966976156853823320957986
4.276342239728786687180673 -0.003345840430158918566566628 1.979688080158945595599107
4.273161739541773584960538 0.003015159943866513488075487 1.979853420402092112340142
4.280299566930624521887694 -0.0363484932771998281442194 1.967200522038236698563196
4.266501326423520090713737 -0.0230276670406920833111819 1.974028933282591546927165
4.263632900263958802611342 -0.03634849327719982120532549 1.9678146666928706398636
4.270293313382211408679723 0.02302766704069210412786362 1.973639153812371205276577
4.260452400076944812212787 0.03667917376349227182030788 1.96798000693601693456003
4.280299566930624521887694 0.0363484932771998350831133 1.967200522038236698563196
4.256660413118253494246801 0.01170937328798391137418822 1.968369786406237498255223
4.263320826236506988493602 -0.008303133808841681867685125 1.974194273525737841623595
4.256660413118253494246801 -0.02831564090566728378317585 1.968369786406237498255223
4.344431857394666529614824 0.01902456076625252956446843 1.974592703371585544758204
4.338863714789333414501016 -0.0166666666666666525575824 1.978944137777793210730692
4.344431857394666529614824 -0.01430877256708080504099545 1.974592703371585544758204
4.329166922910861359241608 -0.002726917090277304004525272 1.981893840001139439621625
4.325038273637722419096008 0.00553038145600081524483338 1.980492107818277336406254
4.334578157652032359692384 -0.03886371478933411255374253 1.974658580640492155922061
4.318068398849527866900644 -0.02492396521294476530172801 1.974362937714083887641436
4.317911490985364864059193 -0.03886371478933411255374253 1.971479112759644936048176
4.324881365773560304432976 0.02492396521294479999619753 1.977608282863838384812993
4.313782841712226812092013 0.03606025042361067634022476 1.970077380576782832832805
4.334578157652032359692384 0.03886371478933412643153034 1.974658580640492155922061
4.30696987478819437455968 0.00986216063883394757072498 1.966832035427028779750458
4.313939749576388038576624 -0.009531423118110038048000909 1.972961205531222450559881
4.30696987478819437455968 -0.02892500687505404621813199 1.966832035427028779750458
4.378676367384212397837473 -0.01589780240754888954168855 1.994574169791761608649949
4.372476929004463386263524 0.006583870509308135943182805 1.989148339583523439344503
4.378676367384212397837473 0.02906554342616517183639502 1.994574169791761608649949
4.367051098796225439002683 -0.03914833958352370579802937 1.984654592780220827563653
4.367051098796224550824263 0.03914833958352369192024156 1.984654592780220827563653
4.355425830208236703811053 0.01930918556044209505317966 1.974735015768680046477357
4.360851660416475539250314 -0.003172487356414941707394295 1.979228762571982658258207
4.355425830208237591989473 -0.02565416027327196979435087 1.974735015768680046477357
4.184508563033534578323724 0.0007586595115015729376417575 2.016250096477966380348334
4.180323276150392786121301 -0.009129233277784625649742267 2.021194042872609841765552
4.168131638860489651676744 -0.01525404130202127374327237 2.034091992844834884124339
4.160125288453728309434609 -0.03267936748018951398364607 2.042045996422417353244327
4.160125288453728309434609 0.00217128487614696736446307 2.042045996422417353244327
4.172769958361913111843933 -0.02655455945595287109428639 2.013640725084130167488183
4.17497425246978259849584 -0.04246256661111796892882353 2.00492806199504514097498
4.160578321072009977399375 -0.03409199284483491187991433 2.02653867505635520984697
4.160578321072010865577795 0.03409199284483491187991433 2.02653867505635520984697
4.182527570258262272773209 0.02655455945595286762483944 2.012481379783525259341559
4.170788965586641694471837 0.03409199284483491187991433 2.009872008389689046481408
4.186712857141404064975632 -0.01666666666666666990481716 2.007537433388881797924341
4.184731864366131759425116 -0.002370185661641408675359699 2.003768716694440676917566
4.184731864366131759425116 0.03096314767169192766482766 2.003768716694440676917566
4.391634210447159070156431 -0.004222182934327540354546571 2.014588031419009883649096
4.39581710522357926862469 0.02074536084616533659907844 2.016627378508759171893416
4.39581710522357926862469 -0.02918972671482041730817159 2.016627378508759171893416
4.390775707144900508183127 -0.04163421044715954338899522 2.010405136642589685180837
4.390775707144900508183127 0.04163421044715954338899522 2.010405136642589685180837
4.386592812368480309714869 -0.0166666666666666664353702 2.008365789552840396936517
4.385734309066220859563145 -0.001781919043532311733996076 2.004182894776420198468259
4.385734309066220859563145 0.03155141428980102330514868 2.004182894776420198468259
4.419348813140352660866483 -0.02677863227960232753166459 2.046127445419954060668033
4.415483238440245372657955 -0.001190408106360193009679027 2.04225489083990829897175
4.419348813140352660866483 0.02439781606688192286402916 2.046127445419954060668033
4.411610683860199166872462 -0.04225489083990878469432317 2.03568302061945693992584
4.411610683860199166872462 0.04225489083990879857211098 2.03568302061945693992584
4.403872554580045672878441 0.02136604123891459178219421 2.025238595818960263272857
4.407745109160091878663934 -0.004222182934327524742035287 2.031810466039411622318767
4.403872554580045672878441 -0.02981040710756965861349954 2.025238595818960263272857
4.143804402344949622261083 0.00936070319126328098668921 2.06555630084631269838269
4.137608804689900665607638 -0.01666666666666668378260496 2.073484753940581626352468
4.143804402344949622261083 -0.02397263014207004841460424 2.06555630084631269838269
4.125218456950230816460135 -0.008114028812669985685213092 2.087608804689900399154112
4.119023706865612588501335 -0.02905616683590389950908595 2.093804402344949799896767
4.119023706865612588501335 0.01282810921056394548589452 2.093804402344949799896767
4.13146767836567718745755 -0.03760880468990060454537172 2.06734362761635859229159
4.119077330626009114666886 -0.03760880468990060454537172 2.081467678365676921004024
4.119077330626009114666886 0.03760880468990057678979611 2.081467678365677365093234
4.13146767836567718745755 0.03760880468990057678979611 2.0673436276163590363808
4.155275170643957238780786 -0.04135376447342038741528114 2.054568857961635686137924
4.154568857961635330866557 -0.04135376447342038741528114 2.057111473878983964880263
4.154568857961635330866557 0.04135376447342038741528114 2.057111473878983520791053
4.155275170643958126959205 0.04135376447342038741528114 2.054568857961635686137924
4.15573574312793425633572 -0.03994113910877499645790678 2.054323117763289463511001
4.159352548208900657300546 -0.01525404130202127374327237 2.058646235526579104657685
4.15573574312793425633572 0.009433056504732450706085523 2.054323117763289463511001
4.158646235526578749386317 -0.01158143483197062936773669 2.061188851443927383400023
4.154323117763288664150423 0.01310566297478309334689772 2.059408349597985576906467
4.154323117763288664150423 -0.03626853263872435728654153 2.059408349597985576906467
4.440106336164738820571074 -0.002263050192429243937658478 2.092369386357168181689303
4.431499088546616782480214 0.01580905585524045725565045 2.084738772714336718649975
4.440106336164738820571074 0.03388116190291016321944895 2.092369386357168181689303
4.424687162927734007666913 -0.04180851548374279330611003 2.06694903364758086894426
4.424579647290412864890641 -0.02654728819807915946027421 2.075985086671416013359703
4.436721766293237223521828 -0.03473877271433636892972174 2.088556011079953478315474
4.424579647290412864890641 0.02654728819807916639916812 2.075985086671416013359703
4.436721766293237223521828 0.03473877271433636892972174 2.088556011079953478315474
4.424687162927734007666913 0.04180851548374279330611003 2.06694903364758086894426
4.419572000818435597579992 -0.02633225692343632920455754 2.054095742258128520774108
4.415929613796411246084972 -0.001190408106360204502222055 2.058191484516257219183899
4.419572000818435597579992 0.02395144071071592106747516 2.054095742258128520774108
4.41582209815908921513028 0.001405439381003040612630461 2.067227537540092363599342
4.419356969543792423849027 -0.008475182150409460435369624 2.072167848305798365515784
4.129606188764618934783357 0.001028224914003308260168623 2.121422036149384293679532
4.128074263067812665894962 -0.004092076307617580760433995 2.123982186760194679209235
4.118578088447776508473908 -0.01490027293245451203707042 2.134361558247337420368694
4.110613839524547508119667 -0.032595164513124504079844 2.142180779123668443730821
4.110613839524546619941248 0.002794618648215500822384882 2.142180779123668887820031
4.120313255839398891566816 -0.02178696788828757280320758 2.116221179531780904881089
4.115742128976060953959859 -0.03742540964095088240615183 2.107373733741446208966863
4.110817081219362734145761 -0.0343615582473366792948255 2.126600551018923201951338
4.110817081219362734145761 0.03436155824733665153924989 2.126600551018923201951338
4.123503136204474728288005 0.02178696788828753463929111 2.1151347409698595392058
4.114210203279254685071464 0.03436155824733665153924989 2.109933884352256594496566
4.1250350619012809971764 -0.01666666666666668378260496 2.112574590359049153676096
4.118932009341137678859468 -0.02068861917171908870738406 2.106287295179524399202364
4.118932009341137678859468 0.01264471416161423895918592 2.106287295179524399202364
4.448023145397878685969317 -0.01560960137894702726146789 2.102505387245980905674969
4.449011572698939431802501 0.0157468773522650290486169 2.102045492588779485032546
4.449011572698939431802501 -0.04696608011015908357155269 2.102045492588779929121756
4.448582767293226325477917 -0.04802314539787871927600804 2.101516959944920159841786
4.448582767293225437299498 0.04802314539787872621490195 2.101516959944919715752576
4.447594339992164691466314 -0.01666666666666665602702935 2.101976854602121136394999
4.448153961887513219153334 0.01383220125311919630750612 2.100988427301059946472606
4.448153961887513219153334 0.04716553458645252050462915 2.100988427301059946472606
4.489273107908347881789268 -0.003326900313573211923762196 2.142600008221921203954707
4.480736541621291202375232 0.01520644946360351010272716 2.135200016443842940816467
4.489273107908347881789268 0.03373979924078022996081216 2.142600008221921203954707
4.473336549843212495147782 -0.03520001644384337935456131 2.126461874199114365779906
4.473336549843212495147782 0.03520001644384338629345521 2.126461874199114365779906
4.457399991778077108506295 0.002923748398229682188276257 2.110323740176307083515894
4.464799983556155815733746 -0.0156096013789470342003618 2.119061882421036102641665
4.457399991778077996684715 -0.03414295115612374365010595 2.110323740176307527605104
4.095114299171898508689083 0.01879438751071592361707729 2.173680088338816762671968
4.090228598343798260827953 -0.01666666666666664908813544 2.179511492927256544049897
4.095114299171898508689083 -0.01453894582261740578421616 2.173680088338816762671968
4.080438531544751334934062 -0.002913466931428162435407936 2.190228598343797905556585
4.075534165573804656901302 -0.02647539860855996698973946 2.195114299171898597506924
4.075534165573804656901302 0.02064846474570362910849752 2.195114299171898597506924
4.085371357113241508329793 -0.04022859834379845234142437 2.174654251696699791551737
4.075581290314194582435903 -0.04022859834379845234142437 2.185371357113241153058425
4.075581290314194582435903 0.04022859834379846621921217 2.185371357113241153058425
4.085371357113241508329793 0.04022859834379847315810608 2.174654251696699791551737
4.125306206199968350745166 0.000110611524177481437879525 2.174804405324208378402773
4.125236061743116522393393 -0.0002509004378800072914551533 2.174985161305237113538169
4.124013382076629596895145 -0.00219445889509372682804611 2.176207840971724039036417
4.122860846866994499748671 0.0001106115241774789442145283 2.177249764657181785310058
4.117245357509605518941953 -0.01702817862872412629782204 2.166994457071725665997519
4.109739915281289235338136 -0.03358423377121336206307944 2.158605817976303686833717
4.115624742981207617731343 -0.01897173708593784258180648 2.173768763126427305820698
4.108786573957331711426377 -0.03344394485751075313251235 2.164736135207457667917197
4.116022677843118593443705 0.01897173708593789809295771 2.168217136738212591495767
4.107634038747696614279903 0.0355277922284271061026395 2.165778058892915858280048
4.117730619514801126967996 0.01702817862872418180897327 2.166596522209815134374367
4.109669770824437406986362 0.03344394485751078782698187 2.158786573957332421969113
4.117800763971652955319769 -0.01666666666666663521034764 2.16641576622878639923897
4.110225177286485731542598 -0.03131603916124109376895035 2.158207883114393155210564
4.110225177286485731542598 0.00201729417209223346393876 2.158207883114393155210564
4.10723610388578563856754 0.01409358139534456003105767 2.17132968528113057260498
4.114472207771572520584868 -0.004767544166415858819529916 2.17481068681188549618355
4.10723610388578563856754 -0.02362866972817630195624616 2.171329685281131016694189
4.496924001264213544004633 -0.01523685701126678733452469 2.153790903563485237270925
4.498462000632106772002317 0.01502047758628097424982162 2.152967809023292211634271
4.498462000632106772002317 -0.04549419160881455065359447 2.152967809023292211634271
4.497731892030575551189031 -0.04692400126421443495861041 2.152252904195592453362451
4.497731892030575551189031 0.04692400126421442801971651 2.152252904195592453362451
4.496193892662682323191348 -0.01666666666666667684371106 2.153075998735785034909895
4.497001783429043442197326 0.0121304507278179284079922 2.151537999367892695090632
4.497001783429043442197326 0.04546378406115127168707346 2.151537999367892695090632
4.539648183432634098721792 -0.002929541436178404074930359 2.192577724868812971692478
4.530957504413096081918866 0.01555924163478272087557386 2.185155449737627098016901
4.539648183432634098721792 0.03404802470574384148926939 2.192577724868812971692478
4.523535229281909764154079 -0.03515544973762779051851268 2.176625963029846566598735
4.523535229281909764154079 0.03515544973762779745740659 2.176625963029846566598735
4.507422275131185429586367 0.003251926059694344121192566 2.160674201190880161504992
4.514844550262371747351153 -0.01523685701126678559980121 2.169203687898660692923158
4.507422275131185429586367 -0.03372564008222791315239064 2.160674201190880161504992
4.082435735338046711717652 0.001391535164448404280485017 2.218955799826400898666634
4.079761519042359729780856 -0.006739967755823307940521438 2.223021551286536556801821
4.069354665209194976682738 -0.01407373991050574202343881 2.234724868497782068743618
4.061622027671718981878257 -0.0321319417416208244486775 2.242362434248891034371809
4.061622027671718093699837 0.003984461920609372494184175 2.242362434248891034371809
4.072167840592293863721807 -0.02479816958693838863103664 2.215427872836470690742772
4.070015339544355903456108 -0.04007330108915661132096275 2.206398771920913048916191
4.061760986759129998802109 -0.03472486849778178008563145 2.227131190047716202684569
4.061760986759129998802109 0.03472486849778175233005584 2.227131190047716202684569
4.077609017994421769515156 0.02479816958693835393656713 2.21399245037097891497524
4.067341123248668921519311 0.03472486849778174539116193 2.210464523381049151140587
4.080283234290108751451953 -0.01666666666666667684371106 2.209926698910843256840053
4.075456516946482921071038 -0.01284016584227157253828011 2.204963349455421273148659
4.075456516946482921071038 0.02049316749106175686301334 2.204963349455421273148659
4.547889484520897696029351 -0.01547237953839590562932216 2.202707659043237065077392
4.548944742260448315107624 0.0157504383158348672255844 2.202249544867821207105862
4.548944742260448315107624 -0.04669519739262668195367567 2.202249544867821207105862
4.548391029744506042220564 -0.04788948452089743235138286 2.2016524013036855578207
4.548391029744506042220564 0.04788948452089743235138286 2.2016524013036855578207
4.547335772004954534963872 -0.01666666666666666296592325 2.202110515479101415792229
4.547837317228563769333505 0.01344872615568016606391044 2.201055257739550352624747
4.547837317228563769333505 0.04678205948901349026103347 2.201055257739550352624747
4.588719941915237576779418 -0.003908047424669153571685776 2.242627989339906591226281
4.580417986947756148197186 0.01468126458847872697899284 2.235255978679813626541772
4.588719941915237576779418 0.03327057660162660579494798 2.242627989339906591226281
4.573045976287664515780307 -0.03525597867981454525132534 2.226558466237375188967462
4.573045976287664515780307 0.03525597867981453831243144 2.226558466237375188967462
4.557372010660092342959615 0.003116932474751969717186029 2.210488943134843786708643
4.564744021320183975376494 -0.01547237953839590909876911 2.219186455577282224282953
4.557372010660092342959615 -0.03406169155154378791472425 2.210488943134843786708643
4.048261345055721882602029 0.03888099892819614489258839 2.290619653872474348332844
4.046522690111443054661322 -0.01666666666666665602702935 2.292701844519819509571334
4.048261345055721882602029 0.005547665594862809419762772 2.290619653872474348332844
4.043039503714798144073939 0.009700293873375920652990523 2.296522690111443498750532
4.041294972262431173248842 -0.02015572957140086135519041 2.298261345055721882602029
4.041294972262431173248842 0.0395563173181526922528306 2.298261345055721882602029
4.044794187549517694435508 -0.04652269011144344323938071 2.290973341957893261167101
4.041311001152871895669705 -0.04652269011144344323938071 2.294794187549517250346298
4.041311001152871895669705 0.04652269011144345017827462 2.294794187549517250346298
4.044794187549517694435508 0.04652269011144345017827462 2.290973341957893705256311
4.07605624099402064075548 0.000356979848412836944966664 2.274300738854391212839801
4.075795855383320898113197 -0.000877751069814984596385854 2.27491810431350538479478
4.069614976160125685566982 -0.01148400737657418596571191 2.281098983536700153251786
4.063694482547631992019888 0.000356979848412835643924057 2.286662497300780749753812
4.067819730220487706162658 -0.01790139758489447258105187 2.26694197915067263693345
4.060604370341028612756418 -0.03421108440314833687434515 2.25843015589313278468353
4.061103152902585833317062 -0.02850765389165366842094684 2.285432981354203363366651
4.059047521352246334913616 -0.03369031318174613154337038 2.271893342427289574914084
4.061638850997292493616442 0.02850765389165371699320417 2.273122858373866961301246
4.053127027739753529544942 0.04481734070990756740870964 2.277456856191370171416111
4.068580495503860916528538 0.0179013975848945142144153 2.26640628105596597663407
4.060343984730327093757296 0.033690313181746159298946 2.2590475213522465125493
4.06884088111456154734924 -0.01666666666666664908813544 2.265788915596851360589881
4.061365135624401823122298 -0.02986265550735735588294695 2.25789445779842568029494
4.061365135624401823122298 0.003470677825975979589878673 2.25789445779842568029494
4.052591329645046869245562 0.03717564952666026212302341 2.289766979171706573481515
4.055182659290093027948387 0.009024975483419385435812643 2.290996495118283959868677
4.052591329645046869245562 -0.01912569855982151206807984 2.289766979171706573481515
4.595207371994201039910877 -0.007118874106369172879982266 2.259566524285947508587924
4.597603685997100342319754 0.02142183122116515792132674 2.261944106563197109949215
4.597603685997100342319754 -0.03565957943390350715073822 2.261944106563197109949215
4.596610984958006795864094 -0.04520737199420100937974354 2.257170210283048206179046
4.596610984958006795864094 0.04520737199420099550195573 2.257170210283048206179046
4.594214670955107493455216 -0.01666666666666666990481716 2.254792628005798604817755
4.595618283918913249408433 0.009888636582679724909561436 2.252396314002899302408878
4.595618283918913249408433 0.04322196991601305604557837 2.252396314002899302408878
4.622204981422147085368124 -0.02335063505078023918248853 2.295555616472927162874385
4.617769066001682354283275 0.001093931228407620751680307 2.291111232945854503384453
4.622204981422147085368124 0.02553849750759547981848741 2.295555616472927162874385
4.613324682474609694793344 -0.0411112329458545311400286 2.283662846086409459189781
4.613324682474609694793344 0.04111123294585452420113469 2.283662846086409459189781
4.604444383527072304218564 0.0173256921728186866205057 2.271770075699891311415968
4.608888767054144963708495 -0.00711887410636917114525879 2.27921846255933635561064
4.604444383527072304218564 -0.03156344038555702891102328 2.271770075699891311415968
4.039166266629012014277578 0.002061659499371476002294035 2.312895392870360389281359
4.033629377939034199584967 -0.0131354368793259405207019 2.320493941059709186447435
4.020721294842660498147779 -0.01268072931342184225811387 2.335394992832704907925745
4.013350100436263723224783 -0.03140905547945997688952247 2.342697496416351832237979
4.013350100436263723224783 0.006047596852616294108018202 2.342697496416352720416398
4.02635842381735642447893 -0.03186376304536407688683397 2.313222986938030079073769
4.030177741004358438203781 -0.04646877021265927859561273 2.303858823855011284109651
4.013450340720982723041743 -0.0353949928327048080056727 2.328124038711026244641289
4.013450340720982723041743 0.0353949928327048010667788 2.328124038711026688730499
4.037448695126037101488237 0.03186376304536407688683397 2.311129777976689503304897
4.024640852314381511689589 0.0353949928327048080056727 2.311457372044360081275727
4.042985583816014028002428 -0.01666666666666666296592325 2.303531229787341150228031
4.041268012313039115213087 0.0061690640860351851973431 2.301765614893670708340778
4.041268012313039115213087 0.03950239741936852067016872 2.301765614893670708340778
4.627248162805448927770158 -0.01723351502317329794755629 2.344481677828621712933455
4.621901564659792072120581 0.00506317396740370816166088 2.338963355657243781138277
4.627248162805448927770158 0.02735986295798071427087805 2.344481677828621712933455
4.6223213132724563223519 -0.04091310314579768570020235 2.313441014324919109412804
4.618959336496297751750717 -0.02987645880304135720395564 2.324589358820207785072398
4.625280808386230901874114 -0.03896335565724367427931085 2.336712577059773199295023
4.618959336496297751750717 0.02987645880304135720395564 2.324589358820207785072398
4.625280808386230901874114 0.03896335565724367427931085 2.336712577059773199295023
4.6223213132724563223519 0.04091310314579768570020235 2.313441014324919109412804
4.622304046322176063199549 -0.02315250525072339374266228 2.304543448427101459685673
4.617967195801740309946126 0.001093931228407620751680307 2.30908689685420265291782
4.622304046322176063199549 0.02534036770753864131755506 2.304543448427101459685673
4.614605219025580851166524 0.00563002232391033967384697 2.320235241349490884488205
4.615580092769858033818764 -0.007579769812464351094738468 2.326840137417678366915652
4.027041550722779028603782 0.000707238078520621218925335 2.373665687355742015540727
4.02655120392028020859243 -0.001687931683517699191221517 2.374863272236761080336009
4.017984606768631117290624 -0.01544526261978070892644244 2.384040571411853548511317
4.00990835641947995782175 -0.03281916736496798270295017 2.392020285705926951891342
4.00990835641947995782175 0.001928642125406538178691851 2.392020285705926951891342
4.018709297702034888288836 -0.0190618364287049694982823 2.367021366018515315943205
4.012015314006063704255212 -0.03502126501685105808281406 2.358334413645922111868458
4.01014270055038402063019 -0.03404057141185391766047275 2.376198665193607784118512
4.01014270055038490880861 0.03404057141185393153826055 2.376198665193607784118512
4.019857220224308136380387 0.01906183642870500766219877 2.366176319864167876261263
4.01152496720356488424386 0.03404057141185393153826055 2.35953199852694162075295
4.020347567026807844570158 -0.01666666666666664908813544 2.364978734983148811465981
4.013163236528336952346763 -0.02765946429657076613417566 2.357489367491574228097306
4.013163236528336952346763 0.005673869036762565001841274 2.357489367491574228097306
4.615475044031413176526257 -0.03138017397884676484842714 2.396855218010259580552201
4.61245469500031646248317 -0.004336404624994563347661902 2.393710436020518805833035
4.615475044031413176526257 0.02270736472885763815310334 2.396855218010259580552201
4.627124674564049300329316 -0.03907969523218361718175373 2.366259754247014512884562
4.619404536236754843514518 -0.03279013125270248407705509 2.379781638923940789709377
4.620109514873683487223843 -0.04371043602051886273196502 2.39098815320669899620043
4.619404536236754843514518 0.03279013125270247713816119 2.379781638923940789709377
4.620109514873683487223843 0.04371043602051886273196502 2.39098815320669899620043
4.627124674564049300329316 0.03907969523218361718175373 2.366259754247014512884562
4.62718999301797850876028 -0.01734985459811324084999917 2.355460152383908045692351
4.621785225084851234100825 0.005063173967403706426937404 2.36092030476781644665607
4.62718999301797850876028 0.02747620253292065717332093 2.355460152383908045692351
4.614065086757556777286027 0.01037710268718552812650113 2.374442189444742723480886
4.611749716363389595130684 -0.005746361898850285178375064 2.382503921737760599341982
4.00738793769319645576843 -0.0358882780944852902704767 2.443276215787681948654608
4.013779645165076459534248 -0.01600251318578861658981083 2.436552431575363719673533
4.00738793769319645576843 0.003883251722908054488769825 2.443276215787681948654608
4.008310205522374047859557 -0.03560043417155445838462313 2.407699503498931470346633
4.014423287711249344056341 -0.02215286574691778878620774 2.41764238595327984882033
4.007555581537465272390364 -0.03655243157536334358548302 2.427109269705723715304657
4.014423287711249344056341 0.02215286574691777837786688 2.41764238595327984882033
4.007555581537466160568783 0.03655243157536333664658912 2.427109269705723715304657
4.008310205522374047859557 0.03560043417155444450683532 2.407699503498931470346633
4.008421186961108162449818 -0.03437903012466851648820665 2.407199782914222652152603
4.015010267851888414725181 -0.01544526261978072974312415 2.414399565828445393123047
4.008421186961108162449818 0.003488504885107052231468794 2.407199782914222652152603
4.021123350040763710921965 0.003219098242029997704316546 2.424342448282794215685954
4.020647351338859643021806 -0.002267100838221120309712298 2.427085547822919853189205
4.594655698393479426044905 0.02185724820305112725549179 2.427201549809571368143679
4.589311396786959207361178 -0.0166666666666666525575824 2.430584322495005444864091
4.594655698393479426044905 -0.01147608513028221255414252 2.427201549809571368143679
4.588181416202342433052763 0.01440670549743107084483817 2.43931139678695974026823
4.592395737224244101071235 -0.008238024622861711901422588 2.444655698393479958951957
4.592395737224244989249655 0.03705143561772383797858765 2.444655698393479958951957
4.594173958715014549625266 -0.03931139678695944050801359 2.43544688442305945486055
4.593043978130396887138431 -0.03931139678695944050801359 2.444173958715013750264688
4.593043978130395998960012 0.03931139678695945438580139 2.444173958715014638443108
4.594173958715014549625266 0.03931139678695944744690749 2.435446884423059898949759
4.615356895373681211935946 -0.04386289389577352482163519 2.409191764352845321894847
4.609191764352845055441321 -0.04386289389577352482163519 2.41713135672755763394548
4.609191764352845055441321 0.04386289389577352482163519 2.41713135672755763394548
4.615356895373681211935946 0.04386289389577352482163519 2.409191764352845321894847
4.6153988150937852452671 -0.03153263185410141306030951 2.403068553052113198731377
4.612302237125062376321694 -0.00433640462499455554140626 2.406137106104226042191385
4.6153988150937852452671 0.02285982260411229677332656 2.403068553052113198731377