/*--------------------------------*- C++ -*----------------------------------*\
| =========                 |                                                 |
| \\      /  F ield         | OpenFOAM: The Open Source CFD Toolbox           |
|  \\    /   O peration     | Version:  v2012                                 |
|   \\  /    A nd           | Website:  www.openfoam.com                      |
|    \\/     M anipulation  |                                                 |
\*---------------------------------------------------------------------------*/
FoamFile
{
    version     2.0;
    format      ascii;
    class       volScalarField;
    location    "1.7";
    object      alpha.water;
}
// * * * * * * * * * * * * * * * * * * * * * * * * * * * * * * * * * * * * * //

dimensions      [0 0 0 0 0 0 0];


internalField   nonuniform List<scalar> 
96000
(
0
0
0
0
0
0
0
0
0
0
0
0
0
0
0
0
0
0
0
0
0
0
0
0
0
0
0
0
0
0
0
0
0
0
0
0
0
0
0
0
0
0
0
0
0
0
0
0
0
0
0
0
0
0
0
0
0
0
0
0
0
0
0
0
0
0
0
0
0
0
0
0
0
0
0
0
0
0
0
0
0
0
0
0
0
0
0
0
0
0
0
0
0
0
0
0
0
0
0
0
0
0
0
0
0
0
0
0
0
0
0
0
0
0
0
0
0
0
0
0
0
0
0
0
0
0
0
0
0
0
0
0
0
0
0
0
0
0
0
0
0
0
0
0
0
0
0
0
0
0
0
0
0
0
0
0
0
0
0
0
0
0
0
0
0
0
0
0
0
0
0
0
0
0
0
0
0
0
0
0
0
0
0
0
0
0
0
0
0
0
0
0
0
0
0
0
0
0
0
0
0
0
0
0
0
0
0
0
0
0
0
0
0
0
0
0
0
0
0
0
0
0
0
0
0
0
0
0
0
0
0
0
0
0
0
0
0
0
0
0
0
0
0
0
0
0
0
0
0
0
0
0
0
0
0
0
0
0
0
0
0
0
0
0
0
0
0
0
0
0
0
0
0
0
0
0
0
0
0
0
0
0
0
0
0
0
0
0
0
0
0
0
0
0
0
0
0
0
0
0
0
0
0
0
0
0
0
0
0
0
0
0
0
0
0
0
0
0
0
0
0
0
0
0
0
0
0
0
0
0
0
0
0
0
0
0
0
0
0
0
0
0
0
0
0
0
0
0
0
0
0
0
0
0
0
0
0
0
0
0
0
0
0
0
0
0
0
0
0
0
0
0
0
0
0
0
0
0
0
0
0
0
0
0
0
0
0
0
0
0
0
0
0
0
0
0
0
0
0
0
0
0
0
0
0
0
0
0
0
0
0
0
0
0
0
0
0
0
0
0
0
0
0
0
0
0
0
0
0
0
0
0
0
0
0
0
0
0
0
0
0
0
0
0
0
0
0
0
0
0
0
0
0
0
0
0
0
0
0
0
0
0
0
0
0
0
0
0
0
0
0
0
0
0
0
0
0
0
0
0
0
0
0
0
0
0
0
0
0
0
0
0
0
0
0
0
0
0
0
0
0
0
0
0
0
0
0
0
0
0
0
0
0
0
0
0
0
0
0
0
0
0
0
0
0
0
0
0
0
0
0
0
0
0
0
0
0
0
0
0
0
0
0
0
0
0
0
0
0
0
0
0
0
0
0
0
0
0
0
0
0
0
0
0
0
0
0
0
0
0
0
0
0
0
0
0
0
0
0
0
0
0
0
0
0
0
0
0
0
0
0
0
0
0
0
0
0
0
0
0
0
0
0
0
0
0
0
0
0
0
0
0
0
0
0
0
0
0
0
0
0
0
0
0
0
0
0
0
0
0
0
0
0
0
0
0
0
0
0
0
0
0
0
0
0
0
0
0
0
0
0
0
0
0
0
0
0
0
0
0
0
0
0
0
0
0
0
0
0
0
0
0
0
0
0
0
0
0
0
0
0
0
0
0
0
0
0
0
0
0
0
0
0
0
0
0
0
0
0
0
0
0
0
0
0
0
0
0
0
0
0
0
0
0
0
0
0
0
0
0
0
0
0
0
0
0
0
0
0
0
0
0
0
0
0
0
0
0
0
0
0
0
0
0
0
0
0
0
0
0
0
0
0
0
0
0
0
0
0
0
0
0
0
0
0
0
0
0
0
0
0
0
0
0
0
0
0
0
0
0
0
0
0
0
0
0
0
0
0
0
0
0
0
0
0
0
0
0
0
0
0
0
0
0
0
0
0
0
0
0
0
0
0
0
0
0
0
0
0
0
0
0
0
0
0
0
0
0
0
0
0
0
0
0
0
0
0
0
0
0
0
0
0
0
0
0
0
0
0
0
0
0
0
0
0
0
0
0
0
0
0
0
0
0
0
0
0
0
0
0
0
0
0
0
0
0
0
0
0
0
0
0
0
0
0
0
0
0
0
0
0
0
0
0
0
0
0
0
0
0
0
0
0
0
0
0
0
0
0
0
0
0
0
0
0
0
0
0
0
0
0
0
0
0
0
0
0
0
0
0
0
0
0
0
0
0
0
0
0
0
0
0
0
0
0
0
0
0
0
0
0
0
0
0
0
0
0
0
0
0
0
0
0
0
0
0
0
0
0
0
0
0
0
0
0
0
0
0
0
0
0
0
0
0
0
0
0
0
0
0
0
0
0
0
0
0
0
0
0
0
0
0
0
0
0
0
0
0
0
0
0
0
0
0
0
0
0
0
0
0
0
0
0
0
0
0
0
0
0
0
0
0
0
0
0
0
0
0
0
0
0
0
0
0
0
0
0
0
0
0
0
0
0
0
0
0
0
0
0
0
0
0
0
0
0
0
0
0
0
0
0
0
0
0
0
0
0
0
0
0
0
0
0
0
0
0
0
0
0
0
0
0
0
0
0
0
0
0
0
0
0
0
0
0
0
0
0
0
0
0
0
0
0
0
0
0
0
0
0
0
0
0
0
0
0
0
0
0
0
0
0
0
0
0
0
0
0
0
0
0
0
0
0
0
0
0
0
0
0
0
0
0
0
0
0
0
0
0
0
0
0
0
0
0
0
0
0
0
0
0
0
0
0
0
0
0
0
0
0
0
0
0
0
0
0
0
0
0
0
0
0
0
0
0
0
0
0
0
0
0
0
0
0
0
0
0
0
0
0
0
0
0
0
0
0
0
0
0
0
0
0
0
0
0
0
0
0
0
0
0
0
0
0
0
0
0
0
0
0
0
0
0
0
0
0
0
0
0
0
0
0
0
0
0
0
0
0
0
0
0
0
0
0
0
0
0
0
0
0
0
0
0
0
0
0
0
0
0
0
0
0
0
0
0
0
0
0
0
0
0
0
0
0
0
0
0
0
0
0
0
0
0
0
0
0
0
0
0
0
0
0
0
0
0
0
0
0
0
0
0
0
0
0
0
0
0
0
0
0
0
0
0
0
0
0
0
0
0
0
0
0
0
0
0
0
0
0
0
0
0
0
0
0
0
0
0
0
0
0
0
0
0
0
0
0
0
0
0
0
0
0
0
0
0
0
0
0
0
0
0
0
0
0
0
0
0
0
0
0
0
0
0
0
0
0
0
0
0
0
0
0
0
0
0
0
0
0
0
0
0
0
0
0
0
0
0
0
0
0
0
0
0
0
0
0
0
0
0
0
0
0
0
0
0
0
0
0
0
0
0
0
0
0
0
0
0
0
0
0
0
0
0
0
0
0
0
0
0
0
0
0
0
0
0
0
0
0
0
0
0
0
0
0
0
0
0
0
0
0
0
0
0
0
0
0
0
0
0
0
0
0
0
0
0
0
0
0
0
0
0
0
0
0
0
0
0
0
0
0
0
0
0
0
0
0
0
0
0
0
0
0
0
0
0
0
0
0
0
0
0
0
0
0
0
0
0
0
0
0
0
0
0
0
0
0
0
0
0
0
0
0
0
0
0
0
0
0
0
0
0
0
0
0
0
0
0
0
0
0
0
0
0
0
0
0
0
0
0
0
0
0
0
0
0
0
0
0
0
0
0
0
0
0
0
0
0
0
0
0
0
0
0
0
0
0
0
0
0
0
0
0
0
0
0
0
0
0
0
0
0
0
0
0
0
0
0
0
0
0
0
0
0
0
0
0
0
0
0
0
0
0
0
0
0
0
0
0
0
0
0
0
0
0
0
0
0
0
0
0
0
0
0
0
0
0
0
0
0
0
0
0
0
0
0
0
0
0
0
0
0
0
0
0
0
0
0
0
0
0
0
0
0
0
0
0
0
0
0
0
0
0
0
0
0
0
0
0
0
0
0
0
0
0
0
0
0
0
0
0
0
0
0
0
0
0
0
0
0
0
0
0
0
0
0
0
0
0
0
0
0
0
0
0
0
0
0
0
0
0
0
0
0
0
0
0
0
0
0
0
0
0
0
0
0
0
0
0
0
0
0
0
0
0
0
0
0
0
0
0
0
0
0
0
0
0
0
0
0
0
0
0
0
0
0
0
0
0
0
0
0
0
0
0
0
0
0
0
0
0
0
0
0
0
0
0
0
0
0
0
0
0
0
0
0
0
0
0
0
0
0
0
0
0
0
0
0
0
0
0
0
0
0
0
0
0
0
0
0
0
0
0
0
0
0
0
0
0
0
0
0
0
0
0
0
0
0
0
0
0
0
0
0
0
0
0
0
0
0
0
0
0
0
0
0
0
0
0
0
0
0
0
0
0
0
0
0
0
0
0
0
0
0
0
0
0
0
0
0
0
0
0
0
0
0
0
0
0
0
0
0
0
0
0
0
0
0
0
0
0
0
0
0
0
0
0
0
0
0
0
0
0
0
0
0
0
0
0
0
0
0
0
0
0
0
0
0
0
0
0
0
0
0
0
0
0
0
0
0
0
0
0
0
0
0
0
0
0
0
0
0
0
0
0
0
0
0
0
0
0
0
0
0
0
0
0
0
0
0
0
0
0
0
0
0
0
0
0
4.968192788947683921744561e-56
8.486134169052295337808771e-54
7.070620493465282684147529e-52
3.875292871032609104591041e-50
1.536094253944667589464137e-48
4.308548991173908022859546e-47
9.39514299741571855295696e-46
2.20667475504399440129234e-44
6.734228961675844688417192e-43
1.889172860432376407120661e-41
5.605170405498207287884938e-40
8.450730804501510230428776e-39
9.932900708804904725008534e-32
1.156960268885377643117966e-31
1.264831163256552409214609e-31
1.367361651184120486471522e-31
1.474025696875479993319148e-31
1.587323822373856701360823e-31
1.708236116867124497068037e-31
1.837406324123958436196727e-31
1.975423242421574410043111e-31
2.122918106379826246812117e-31
2.280592753622133645678742e-31
2.449068542962093549986901e-31
2.628745384372231723402963e-31
2.820535819278977589337155e-31
3.02721349334635802465825e-31
3.251297629244591948776751e-31
3.486959223902146923940478e-31
3.72151594817014094976956e-31
3.96708637495090878352719e-31
4.298001183207536828803248e-31
4.827423404731556922621196e-31
5.37204157357029320015334e-31
5.52835181392264455733645e-31
5.531227844644444202533367e-31
5.525833634141649671620898e-31
5.507109632070485099210502e-31
5.470012835582037073075335e-31
5.410377848894784057786273e-31
5.319572574496271406846803e-31
5.192820603753056014202667e-31
5.085245849179315362425002e-31
5.055972402333705314700569e-31
5.0547457562816721213626e-31
5.0548409275090406662554e-31
5.055302598469904675011758e-31
5.055571987629401961528304e-31
5.054950879588755522254538e-31
5.049705410818135391175988e-31
5.031719049300388161662682e-31
4.991716445682572315366015e-31
4.923682228395314251924008e-31
4.827114470041218390616231e-31
4.704899989815491929903029e-31
4.560058061030057320713707e-31
4.396144633413145682270708e-31
4.220087041357567390081019e-31
4.040588965756078479144191e-31
3.859889769721131069287149e-31
3.666619339208747585353378e-31
3.433599427227677070051657e-31
3.114888344695182326957407e-31
2.646574290690184019251818e-31
2.003607266152659963593306e-31
1.364811411974851452718441e-31
1.010233067115476361266388e-31
8.830663694783907528199827e-32
8.087908303869603903896095e-32
7.008023714262714918950064e-32
5.114989398790376230936341e-32
3.673718945028469017328865e-32
3.481779932772896141273647e-32
6.598407583474335698695504e-30
1.515620539777910325048815e-28
1.718437509253146227096195e-27
1.245348782803362476074025e-26
6.214140560271904919774062e-26
1.989941087476787246717013e-25
3.296601348285079591544423e-25
3.383270119523585438730614e-25
2.958557478626147322356281e-25
1.654247654852880246450672e-25
3.64858817037511226412361e-26
1.718735216085270448825329e-27
9.219482249870080299602782e-30
3.026413539834129469386111e-33
8.30798778527854269732496e-38
2.085211136731690228832924e-42
4.937306669888162251780317e-47
1.156459945844833191903039e-51
2.797018661607435030524365e-56
6.961193944849778618318657e-61
1.717726277514896770418156e-65
4.116931496040685752824453e-70
9.67003056329777325581523e-75
2.264039452594634330805054e-79
5.316763300381099307724129e-84
1.244886870503769218249939e-88
2.880737589123395989038994e-93
6.566216076088466737995806e-98
1.477904675702464582704808e-102
3.295468944182701159684671e-107
7.279601662637521607123556e-112
1.58815477236886291879651e-116
3.411178690572451890540388e-121
7.204085943849539971288906e-126
1.496254864169084450045037e-130
3.056671376242626579052239e-135
6.13602157893267198941051e-140
1.208088092971457696213288e-144
3.714530068331798504181604e-149
6.197654442192769269828606e-150
1.850331660377269552177793e-150
5.080622640314851806231624e-151
1.306395302033655689891749e-151
3.181296895594624989438245e-152
7.280507478392357740442832e-153
1.562533235031265200845583e-153
3.151759031422962207899621e-154
5.989200667890411866606144e-155
1.074437518783433736877502e-155
1.823520972090202951434627e-156
2.93437238871796952399548e-157
4.487070361152273664450828e-158
6.534756291222813202175229e-159
9.084699525286205471400183e-160
1.208475504031752185375412e-160
1.542036861759475869262079e-161
1.892496235938804503390328e-162
2.240275245135715640700008e-163
2.565912908898949718340697e-164
2.85312369475932717241757e-165
3.091136126144372580665417e-166
3.27581708275487170475373e-167
3.409488274414096900247022e-168
3.499768271464356898856864e-169
3.558137577571086267076644e-170
3.599275028149256478432531e-171
3.642854097268157582490755e-172
3.721186425021867252125368e-173
3.900606099479576334637303e-174
4.33578755061615499311664e-175
5.403434229410567659388059e-176
8.02586145231511018237392e-177
1.444296742250508171967011e-177
3.002702876163545281591322e-178
6.74848766839848865690202e-179
1.564391224998849217289771e-179
3.649362988070332038386634e-180
8.469785350413889162747526e-181
1.945928122727943586131399e-181
4.415948689182834272493804e-182
9.888803547236101870277305e-183
2.184245744361333413248529e-183
4.757941274234428696351206e-184
1.022040056371610765859693e-184
2.164929045047048051795623e-185
4.522248617968035264955279e-186
9.315691755473489830808413e-187
1.892537429680825788838515e-187
3.79195922779232950445519e-188
7.49368116743830813397878e-189
1.460705184067794697893614e-189
2.808598680005191571702158e-190
5.327221735010968920995109e-191
9.968277550678070721272614e-192
1.840229413712350218282797e-192
3.351817720393949183069799e-193
6.023781906750091016125751e-194
1.068223325063535659535857e-194
1.869313090147444885307413e-195
3.228137561511384586475464e-196
5.501668594875771099768467e-197
9.254036425903765000745991e-198
1.536327825505407746390216e-198
2.517523686574684804367381e-199
4.072122192127474671717101e-200
6.501981256241321625045151e-201
1.024867976739453577024525e-201
1.594801240445615140745091e-202
2.450080082236711670259191e-203
3.716269650778691657563534e-204
5.565510942970585441676665e-205
8.229830990968772885315141e-206
1.20165978584454426651413e-206
1.732579098951951483046249e-207
2.466841589877720745063095e-208
3.46849710473302237343255e-209
4.816239280233841267979371e-210
6.60473973556092161037652e-211
8.945366073858144691953973e-212
1.196599018402017342659099e-212
1.580957446351228665612144e-213
2.063123265603981019320155e-214
2.659350761020745041640277e-215
3.385969692098317047787677e-216
4.258519186775654966108565e-217
5.290697272984224461356747e-218
6.493161532290689319950644e-219
7.872239328972921319217635e-220
9.428628554884298147492929e-221
1.115618906534023479216391e-221
1.304093797804440367204163e-222
1.506036594073289238163418e-223
1.718318411282492047492167e-224
1.936959174322725609804734e-225
2.157212202727525923767073e-226
2.37370811375747563329396e-227
2.580654527525266878000418e-228
2.772082795479825496013954e-229
2.942128007369836506480555e-230
3.085324441366909673198117e-231
3.196895933756582865913488e-232
3.273019757829430691053965e-233
3.311043726372189949949152e-234
3.309639349622462381149552e-235
3.268878734140354694399019e-236
3.190229027749504275864317e-237
3.076464973237359404629187e-238
2.931506820837213924538709e-239
2.760196768951273941155029e-240
2.568031655213535185228952e-241
2.360872379179429220393851e-242
2.144651297254209651805072e-243
1.925097620054613118750658e-244
1.707497912323571769722634e-245
1.496504570855003036527474e-246
1.296000171392244805935113e-247
1.109020401027246791138309e-248
9.377334609605316719017053e-250
7.834697709445708348534722e-251
6.467928287415027954356342e-252
5.27600317095923836102723e-253
4.252439976040560001655439e-254
3.386574482728203821799796e-255
2.664820607718210659972017e-256
2.071836359583559141085187e-257
1.591541150905646012261457e-258
1.207951980696408707222079e-259
9.058261868078594211441495e-261
6.711152405818701008560795e-262
4.912466250824846637047647e-263
3.552590243677505458269642e-264
2.538201637008760996193661e-265
1.791573252417980035659858e-266
1.249286474498568594555537e-267
8.60596690530406179728863e-269
5.856500604444897108008951e-270
3.937022460645961204462517e-271
2.614439698586224747655916e-272
1.714983010986082670290253e-273
1.111221014943303797248296e-274
7.111955444957542103617163e-276
4.495868892400681958880991e-277
2.807125895914293208435737e-278
1.731095119424194421812947e-279
1.054332118810771173498601e-280
6.34187389891330343206163e-282
3.767273408211268256263521e-283
2.209994894121644635340071e-284
1.280249792205099199040945e-285
7.323550582700608071858522e-287
4.136717699757265856984649e-288
2.307174738839144772963126e-289
1.270510157218209225523513e-290
6.907659950059851616409841e-292
3.707835595131154560594461e-293
1.964842284393273981313705e-294
1.027857848322193793007699e-295
5.30782258611469444136212e-297
2.705558805179183782164195e-298
1.361236073399263615943978e-299
6.759644469415914027360012e-301
3.31287924999086161949273e-302
1.602342981632550562002488e-303
7.648030397234011294564668e-305
3.602163600483026859037533e-306
1.674062793849710396559368e-307
7.676241343931954779047252e-309
3.472701339365436826664518e-310
1.54988983947625521269421e-311
6.823712367831205578439001e-313
2.963454186892371506194716e-314
1.269415299492220570128375e-315
5.362983772477562987727819e-317
2.234416823973495908503974e-318
9.173810911980265832270529e-320
3.789483503602360993834283e-321
8.399115979301191251001669e-323
0
0
0
0
0
0
0
0
0
0
0
0
0
0
0
0
0
0
0
0
0
0
0
0
0
0
0
0
0
0
0
0
0
0
0
0
0
0
0
0
0
0
0
0
0
0
0
0
0
0
0
0
0
0
0
0
0
0
0
0
0
0
0
0
0
0
0
0
0
0
0
0
0
0
0
0
0
0
0
0
0
0
0
0
0
0
0
0
0
0
0
0
0
0
0
0
0
0
0
0
0
0
0
0
0
0
0
0
0
1.192871298877445158289106e-56
7.567313435456493959907057e-54
1.10044145146928059854784e-51
8.500557933829136832627879e-50
4.439308626313355294000243e-48
1.749588141501406414924359e-46
5.261343411091392531771159e-45
1.23954695023248074510836e-43
2.534614446338765186487853e-42
5.558440862964737314612399e-41
1.269265792775368136954209e-39
3.550451736547192430448927e-38
5.620662440722079945489119e-37
3.771021827709332795363259e-30
4.744158222215578559662509e-30
5.492645317167355955477125e-30
6.256035602807492120958091e-30
7.086867621281451528880334e-30
8.003143316370361239500091e-30
9.015474577290772483331369e-30
1.013323481041099119780995e-29
1.136608907513232756267908e-29
1.27244817062894352945288e-29
1.421971289555636091760452e-29
1.586356020757727518728248e-29
1.766848253405874848790821e-29
1.965024519145709379915592e-29
2.182967831741054158348585e-29
2.422315509285984840239507e-29
2.682650530732064375553003e-29
2.96360160434570243038933e-29
3.272806107125796767367721e-29
3.629147416486390451640178e-29
4.044039657061825709160539e-29
4.490491592222506736175802e-29
4.921302216745361724091382e-29
5.314782114382219964858085e-29
5.666267327236297111924012e-29
5.96845947958335900093516e-29
6.235201200208385204609885e-29
6.541508964391012453328815e-29
7.061223765151937559151713e-29
7.963282063578165198786516e-29
8.693492855312946771878341e-29
8.808598988509752871810226e-29
8.80522932684530202185071e-29
8.784996707719281545085212e-29
8.724168135573120478851201e-29
8.587530118376935136109627e-29
8.37426536217951930726627e-29
8.186445631887085942068469e-29
8.095768706314293263551459e-29
8.052594584554072261815652e-29
8.01232908093110296304899e-29
7.949466956358365898140456e-29
7.836832938921339765995875e-29
7.644547236323555492777475e-29
7.350735485721766401573512e-29
6.952650629263591332348259e-29
6.460059868230837751317486e-29
5.874266286665216951677596e-29
5.184020194942551933567676e-29
4.393119865520368851479248e-29
3.554680752352473097479053e-29
2.769552459728180015824198e-29
2.144265221951838180974589e-29
1.729132708298132794539393e-29
1.469360014645957878227025e-29
1.252031133003290258789731e-29
9.789474733328078544643121e-30
6.881007967054582165698138e-30
5.774417322591465808278513e-30
5.731806732584142375208561e-30
5.821857165164147561390759e-30
1.489772567701076524355557e-27
3.005769999775606318282874e-26
3.01923650805859089297033e-25
1.934874489765400553847598e-24
8.217035252609793421493827e-24
1.97710351088923141722139e-23
2.42486329513419165208926e-23
2.31311382901584269720949e-23
1.67537024094279074271478e-23
6.138730591030651238273742e-24
6.531343390468472633490203e-25
1.096768704963367491152763e-26
1.536113640279099219742551e-29
1.044645005384331238509191e-33
2.587984460689212504908612e-38
6.905120366815972560014838e-43
1.873624050523223093234541e-47
4.900119408629101907801643e-52
1.251187914328993748223079e-56
3.163184328231878516334103e-61
7.93800623370216333289261e-66
1.977977847737786173975999e-70
4.893658973322913548032869e-75
1.201083013616273407280947e-79
2.919592726604371251202544e-84
7.013965530427015908576832e-89
1.66353931924774591924578e-93
3.897854913379034230945032e-98
9.031478236986542262086757e-103
2.068216526628071206677269e-107
4.671418288382011786600172e-112
1.038492323507435038351953e-116
2.269904733760243637362865e-121
4.877558467769575060770121e-126
1.030137523312171930176335e-130
2.136211543983996772136646e-135
4.342256934829637594790189e-140
8.637378994307496209234642e-145
3.906121547553856027953587e-149
9.036021938307891650041024e-150
2.902466912868148679682225e-150
8.568201581119172416744001e-151
2.355083028289916005877426e-151
6.024872239075539855885772e-152
1.430067208143397628069645e-152
3.157759331757700120793357e-153
6.513572220305531603302251e-154
1.259684612167736834976457e-154
2.291516666905465835604309e-155
3.933183294402932820728933e-156
6.388623263865794514523455e-157
9.847968635140310905126055e-158
1.444685556202492119312425e-158
2.02255938015622415071203e-159
2.710016344771042389612063e-160
3.485599382613781091596103e-161
4.317009960746439907019638e-162
5.165885656778505473942565e-163
5.994060871110448085841944e-164
6.76977462877041752584101e-165
7.472390065746638974609853e-166
8.094850161482664789828967e-167
8.64418606810462585892599e-168
9.141884932638554863563113e-169
9.628299295056556097311994e-170
1.018033506253439143063767e-170
1.096418402970923373129637e-171
1.23766236560540210026545e-172
1.540750685824839637789346e-173
2.254890291000276066141998e-174
4.003753879599744822168498e-175
8.330096825993017058056132e-176
1.899819005045625670830947e-176
4.50603738037489444148361e-177
1.079647192087901026869089e-177
2.57771388817788995318134e-178
6.095704159764529740189144e-179
1.423982084188429531188629e-179
3.282303894286039531914181e-180
7.461592565986610542646789e-181
1.672528607328242243703057e-181
3.696353415564471151853654e-182
8.054296035469647993747573e-183
1.730397788349190024066397e-183
3.665607665735872113294011e-184
7.656832224868803099946447e-185
1.577172531985387821849856e-185
3.203770397788429820610765e-186
6.418324289814363443209233e-187
1.268196181262717621596259e-187
2.471623643386020714593977e-188
4.751557207265852731870591e-189
9.011016519664488415388773e-190
1.685862182201952855503032e-190
3.111764845036714365874328e-191
5.667003696299089801693854e-192
1.01832745617700345900938e-192
1.805649359059211205753457e-193
3.159480707398943927670092e-194
5.455796501877984794194017e-195
9.297884178006072517134059e-196
1.56392693649071656385859e-196
2.596435157766118770989522e-197
4.254896641252947383856616e-198
6.882914277147535470999711e-199
1.099128069244304906475002e-199
1.732754715872005621970217e-200
2.69686044666374365450029e-201
4.144113833282232974685843e-202
6.287462504897339407066851e-203
9.419066639001347386870674e-204
1.393306792080141252343913e-204
2.035210121369469106596471e-205
2.935702629396484411612071e-206
4.181878192669029550558573e-207
5.88305511147480319516321e-208
8.1737604307211070048602e-209
1.121613150014064810609484e-209
1.520130095001194190561661e-210
2.034926404302554940361775e-211
2.690669073539914250775456e-212
3.514215444726396852663684e-213
4.533832043425502801855397e-214
5.778078042035367858870558e-215
7.274344235761485535691295e-216
9.047068156360496550323353e-217
1.111568178275946150304282e-217
1.349238761531481342156327e-218
1.617989789881533210006581e-219
1.916930585632836927188666e-220
2.24382818424185845184355e-221
2.594979643642561815827648e-222
2.965156268477613832474877e-223
3.347635862546663228079127e-224
3.734333882039064304929615e-225
4.116037247636421587666298e-226
4.482736116459080718492566e-227
4.824039883577181662112657e-228
5.129655009856710108519371e-229
5.389894947887320013008213e-230
5.596187381507229548474304e-231
5.74154193061729004154736e-232
5.820942817919207755217283e-233
5.831635782637591907191326e-234
5.773286387368482980641176e-235
5.647997053300761051738325e-236
5.46018164333960572667801e-237
5.216307998216502112146154e-238
4.924529313622996694111155e-239
4.594233564688586162427698e-240
4.235545548099613999745127e-241
3.858818094862669209810148e-242
3.474147581892697513530929e-243
3.090944395090656245688203e-244
2.717582142535434176263516e-245
2.361141066427825276754392e-246
2.027252224760653153070322e-247
1.720040537962555054083834e-248
1.442157505466941042836485e-249
1.194888853501619784373724e-250
9.783188785620920878484903e-252
7.915318402664689290424031e-253
6.328312440542404808198247e-254
4.999598794418207213832378e-255
3.903065832251015532163943e-256
3.010893886328766516907127e-257
2.295085416978849463945429e-258
1.728664332462764101512211e-259
1.286545321540982824277223e-260
9.46097501505027903591405e-262
6.874426485227247216594531e-263
4.935370906107570036234905e-264
3.500889777716828796868008e-265
2.453604449497271222167058e-266
1.698986290671134188873141e-267
1.162320047117072301599423e-268
7.856027710209198925389623e-270
5.245805393273358988840267e-271
3.460535166894371908372949e-272
2.25520422645485798532562e-273
1.451874764121256793185873e-274
9.23340341072224143924297e-276
5.800588922436672855021799e-277
3.599546457073898564308975e-278
2.206359206754171352527837e-279
1.335808652053330693779765e-280
7.988003718454459714888161e-282
4.717850017126540569798109e-283
2.751992642096159758880005e-284
1.585377075402202774346714e-285
9.019541096334865225960321e-287
5.06741825335794711359875e-288
2.8114014216924012895862e-289
1.540194587347812393842857e-290
8.331577416249413042198284e-292
4.44999495219248946823274e-293
2.346678639492173920622726e-294
1.221771933832274715323707e-295
6.279847758039755409598236e-297
3.186470965917572214073384e-298
1.596068497393749545053817e-299
7.891362813376187027231345e-301
3.851137368337055519262119e-302
1.85498102596377978724834e-303
8.81819487278541372803548e-305
4.136997896708854096794216e-306
1.915275458126413220547565e-307
8.749672038281208636221374e-309
3.944032029714891949084526e-310
1.754082562646433599885841e-311
7.696488706006584307211836e-313
3.331497981280847181738105e-314
1.422529701597943762894503e-315
5.991394266539023768457248e-317
2.488860631581737878754907e-318
1.019405647064243994599514e-319
4.120507486315996178432584e-321
8.399115979301191251001669e-323
0
0
0
0
0
0
0
0
0
0
0
0
0
0
0
0
0
0
0
0
0
0
0
0
0
0
0
0
0
0
0
0
0
0
0
0
0
0
0
0
0
0
0
0
0
0
0
0
0
0
0
0
0
0
0
0
0
0
0
0
0
0
0
0
0
0
0
0
0
0
0
0
0
0
0
0
0
0
0
0
0
0
0
0
0
0
0
0
0
0
0
0
0
0
0
0
0
0
0
0
0
0
0
0
0
0
0
1.916133345091296385564761e-57
1.287981327999798908169152e-54
4.547079131261579247297407e-52
5.969085673481869983989938e-50
4.461337191446463759636197e-48
2.302691707471085605957483e-46
9.042610920965453043913622e-45
2.759039810808476944097709e-43
6.779638157797145905046055e-42
1.389545785432922637552886e-40
2.650796347179326523325749e-39
4.829551480168825014951594e-38
1.159748558349281860114387e-36
1.852494080048815930068504e-35
6.648002099972197137193473e-29
8.812944654322355870421217e-29
1.066339407808946870936984e-28
1.267410045546468016284547e-28
1.497443930228580408959862e-28
1.762916590987201353352055e-28
2.069179627621778516209996e-28
2.421734726076395463405231e-28
2.826588047308993650361405e-28
3.290388226528901389152901e-28
3.820487628265435098959039e-28
4.424967489631256126307427e-28
5.112801775589829734073944e-28
5.894273362184607574273191e-28
6.780971081498356475776836e-28
7.78437858310627062577e-28
8.914878738950165509044452e-28
1.018635547321801223953886e-27
1.162526280320481183456572e-27
1.326855759212452288235948e-27
1.513838744202544568697993e-27
1.721734895125459278881307e-27
1.946338938199223288489834e-27
2.183835209553768854307963e-27
2.429186348716101837067794e-27
2.675065940658851525197916e-27
2.923081657768968390496975e-27
3.20139313156720973532182e-27
3.567457518590044763229285e-27
4.059706040071080947889047e-27
4.596272151603553406581682e-27
5.063372413634112381606889e-27
5.449461485691135406460181e-27
5.640385136992852570376132e-27
5.652109746800518184632193e-27
5.645558933509817853530546e-27
5.628740421576586459441146e-27
5.608261111441564252901172e-27
5.589408230504887123969905e-27
5.569604467464223389059268e-27
5.542115738797347839906242e-27
5.496899801385041131336368e-27
5.420826035007748006985931e-27
5.29987595967112682350507e-27
5.121233126370366378729322e-27
4.869199601642241139721941e-27
4.51345824503481377370739e-27
4.004855502153263021737828e-27
3.317340494347144926530982e-27
2.55292506423878898050393e-27
1.931530856759637374913028e-27
1.545928008115970529988271e-27
1.312448431916098541576326e-27
1.132497123222470299563822e-27
9.358052426012652961708137e-28
6.813519966260602294272555e-28
4.65300984925313011489405e-28
4.082829431118833422801625e-28
4.071037060707195006512769e-28
4.175389235480577587052832e-28
4.644462281229253513736774e-28
1.461233614734092289359926e-25
2.601519008962152864587858e-24
2.324826077221476544641366e-23
1.30971713543407816119889e-22
4.545147968538562276366733e-22
7.902004900078028695269161e-22
8.160912784920466197172076e-22
7.075292976224925384238719e-22
3.824137628805082682585363e-22
7.964505467025950363091911e-23
3.551768925468259889794876e-24
1.747369429176553050900737e-26
5.348688713203776792100684e-30
1.463020756767007285051186e-34
3.655334154031665163898126e-39
8.912678280668735848457355e-44
2.211145106390997270113193e-48
5.58971444466307098588181e-53
1.411360574033368088830092e-57
3.533290426011065909455399e-62
8.857904795289204075166877e-67
2.233768621394170807025846e-71
5.62451003025230795079649e-76
1.403003581999284492707854e-80
3.463165175175438813463639e-85
8.488530613537804845851148e-90
2.070792528245608815867015e-94
5.018101255268882537020681e-99
1.202414625281452735045937e-103
2.83839920388088494780354e-108
6.593177357488362046265242e-113
1.507633446348972431519237e-117
3.393769745989129125256657e-122
7.509674646849774608333567e-127
1.629362317850640331587016e-131
3.458038258534648849629208e-136
7.16855154110637508963127e-141
1.450854833848961032630549e-145
2.589659339962908439387763e-149
8.473221888533154588677413e-150
2.800377088055801591174605e-150
8.604231127495896362034935e-151
2.458071855040213766660268e-151
6.456425875240541810918551e-152
1.56107427881769225745492e-152
3.494612290960915908929572e-153
7.28151172489288727776924e-154
1.418599339960429672248356e-154
2.594736999202428997730806e-155
4.472580594064734266116191e-156
7.290796413743475229904756e-157
1.127690123040457326450191e-157
1.660404075632911190102878e-158
2.33484094698057776032705e-159
3.146004459831092224402079e-160
4.075806740596666605319006e-161
5.09552417523081196684208e-162
6.170802982128291372728646e-163
7.268074821388311142833522e-164
8.360965210664319291701359e-165
9.435757507150257323235094e-166
1.049647023656603284066779e-166
1.157326533401925737364369e-167
1.274484631483925198516783e-168
1.42023332453599369531914e-169
1.642488710232685669612852e-170
2.064653862801967717905662e-171
3.006859892782363250030418e-172
5.295247161857481700033936e-173
1.103827295916255263838164e-173
2.554474661767634222187654e-174
6.19884775616210793632591e-175
1.525741243805951268388926e-175
3.748431028985646113091958e-176
9.12668274386457436596869e-177
2.195442679963596786847974e-177
5.210680767154956778873222e-178
1.219498333991940446213448e-178
2.813720041289975825501147e-179
6.399688564885473801255105e-180
1.434867461449616070800742e-180
3.17140553320302641529431e-181
6.910329261785236838014427e-182
1.484488436949640664054645e-182
3.144216982716560941780889e-183
6.566495135460916868715927e-184
1.352286484471587429349446e-184
2.746291476388102264951058e-185
5.500426466511053977779105e-186
1.086542708100229553826519e-186
2.117028141615497331024055e-187
4.068780311676157129065677e-188
7.714142463873174607997493e-189
1.442860938580582952297669e-189
2.66257499913692775064123e-190
4.847819391695088160670943e-191
8.709322367956542216986205e-192
1.543978571544938398278271e-192
2.701109654195539900649859e-193
4.66349732882351900546154e-194
7.946461669891170164260303e-195
1.336447222181569591642726e-195
2.218547081063119105936985e-196
3.635353135632565693848532e-197
5.880407489967902525959874e-198
9.390144933595246499960755e-199
1.48034134265025596035597e-199
2.3040730230563571364696e-200
3.540747581295586965596091e-201
5.372508071285864239844894e-202
8.049354644837385538650933e-203
1.190871482140548109759146e-203
1.739826849815265390164541e-204
2.510159994715374303968256e-205
3.576575976968421711654695e-206
5.032921046111736483671181e-207
6.994792420855897255157649e-208
9.601664937930750386886668e-209
1.301816385746493168850414e-209
1.743405384901003565084008e-210
2.306248040652404843824516e-211
3.013600513839701149530209e-212
3.890003349738944101769629e-213
4.960335284543185947364218e-214
6.248568552331272932066458e-215
7.77624136355954088302023e-216
9.560693808240752176457395e-217