# geometry NO_DATA 708
#  x  y  z
3.642599070699516605742474 0.005594424197094258199847161 1.912995353497577655232931
3.63519814139903285621358 -0.01666666666666667684371106 1.920396282798063847252479
3.642599070699516605742474 -0.02773890913623907120144629 1.912995353497577655232931
3.619098961118537349790358 -0.01553169389432374272730364 1.935198141399033566756316
3.610400710138525148806821 -0.03406316862669053757706195 1.942599070699516872196
3.610400710138525148806821 0.002999780838043063398157262 1.942599070699516872196
3.627797212098544665792588 -0.03519814139903347516291632 1.912995353497575878876091
3.611698031818049603458576 -0.03519814139903347516291632 1.927797212098545154290719
3.611698031818049603458576 0.03519814139903346128512851 1.927797212098545154290719
3.627797212098544665792588 0.03519814139903346128512851 1.912995353497575878876091
3.692050560676344961308359 0.002303364058063969883882738 1.910252803381719211017753
3.684101121352689744981035 -0.01666666666666667684371106 1.918202242705376203701917
3.692050560676344961308359 -0.03102996927526936038477245 1.910252803381719211017753
3.674835383986504666609108 -0.001864808065702174737568453 1.926700192052206439541351
3.673519085943976136832134 0.0007677880193558742592807587 1.927248702075379682696621
3.676151682029031864118451 -0.03410112135268922317621332 1.910252803381718544883938
3.66611815664349283139245 -0.01929926275172472172059202 1.919847772774892380454048
3.659485015362364812574469 -0.03410112135268922317621332 1.911349823428061700525404
3.666885944662846785746524 0.01929926275172470437335726 1.918750752728549002767977
3.658168717319835838708286 0.03519814139903548744214845 1.911898333451234943680674
3.676151682029031864118451 0.03410112135268920929842551 1.910252803381718544883938
3.657400929300481884354213 0.005594424197096291295761006 1.91299535349757854341135
3.664801858600964301615477 -0.0129370505352725401193581 1.920396282798065623609318
3.657400929300481884354213 -0.0314685252676413645955833 1.91299535349757854341135
3.741957355270415064296685 0.001744131622484922875676583 1.909786776352069725959382
3.73391471054083012859337 -0.01666666666666666296592325 1.917829421081656438019536
3.741957355270415064296685 -0.03158920171084840522457426 1.909786776352069725959382
3.725197483197818293376713 -0.0007677880193564282865908988 1.9259652712171737576341
3.72452290058439183795258 0.0005813772074961591441663589 1.9260584766231039210993
3.725872065811242528354796 -0.03391471054082949299068872 1.909786776352069503914777
3.716573461260737065714466 -0.01801583189351925462506898 1.918109037299446484325927
3.709205399144576364989234 -0.03391471054082949992958262 1.909973187163929164711362
3.717154838468231137227349 0.01801583189351925115562203 1.917922626487586601484736
3.708530816531149909565102 0.03410112135268975053215001 1.910066392569859328176562
3.725872065811242528354796 0.03391471054082948605179482 1.909786776352069503914777
3.707949439323655838052218 0.002303364058064515888096802 1.910252803381719211017753
3.715898878647310610290333 -0.01513109062795857558125778 1.918202242705376647791127
3.707949439323655838052218 -0.03256554531398167529054888 1.910252803381719433062358
3.791949874280899024370228 0.001699245685393606722368709 1.909749371404493745174591
3.78389974856179911455456 -0.01666666666666665602702935 1.917799497123596319525518
3.791949874280899024370228 -0.03163408764793973482198908 1.909749371404493745174591
3.775275726624717442803103 -0.0005813772074962566139416653 1.925857103832214090033403
3.774701830406736569045734 0.0005664152284659374836719992 1.925864584821729508234966
3.775849622842696540203633 -0.03389974856179924639354439 1.909749371404493967219196
3.766659185677151189253209 -0.01781445910262884416153106 1.917821940092142130040997
3.759182956176030376838071 -0.03389974856179923945465049 1.909764333383524581577717
3.767225600905615312541386 0.01781445910262886844765973 1.917806978113111515682476
3.758609059958049503080701 0.03391471054082960401299118 1.90977181437303955569007
3.775849622842696540203633 0.0338997485617992533324383 1.909749371404493745174591
3.758042644729584935703315 0.001744131622485043222117729 1.909786776352070170048592
3.76608528945917031549584 -0.01550391225167788850081152 1.917829421081657326197956
3.758042644729584935703315 -0.03275195612584083648677336 1.909786776352070170048592
3.841988712668166883190679 0.001932276008997467183284091 1.909943563340830152696981
3.833977425336332789385096 -0.0166666666666666594964763 1.917954850672665134680983
3.841988712668165995012259 -0.03140105732433587371055239 1.909943563340830152696981
3.825360884388766535835202 -0.0005664152284656819372199443 1.92592729961723296838727
3.824755630773033487912471 0.0006440920030009189296144045 1.925888461229965376020346
3.825966138004498251490304 -0.03397742533633423683836483 1.909943563340830596786191
3.816705505053932689918383 -0.01787717389813325841174674 1.917838335510863245758628
3.809299471337831199946322 -0.03397742533633423683836483 1.909865886566295856141551
3.81734959705693199794041 0.01787717389813327922842845 1.917916012285397986403268
3.808694217722098152023591 0.03389974856179904516562118 1.909827048179028263774626
3.825966138004498251490304 0.03397742533633425071615264 1.909943563340830596786191
3.808050125719099288090774 0.001699245685393382943040308 1.909749371404493079040776
3.816100251438199641995652 -0.01553383620973897843997591 1.917799497123595431347098
3.808050125719099288090774 -0.03276691810487134676188603 1.909749371404493079040776
3.892097461988302420365926 0.002584771929807993650490827 1.910487309941505396082562
3.884194923976605373638904 -0.01666666666666667684371106 1.918389847953206661657077
3.892097461988302420365926 -0.03074856140352534572546261 1.910487309941505396082562
3.875539544641771527722085 -0.0006440920030004288702324411 1.926183636644771990376057
3.874786703318635616710708 0.0008615906432718695509564988 1.926074887324636053520521
3.876292385964904774198203 -0.03419492397660522930991078 1.910487309941506506305586
3.866775415986801966994335 -0.01817234931293897765014478 1.918063599992800849491914
3.859625719298238166743431 -0.03419492397660522930991078 1.910269811301236853040564
3.867637006630071372370594 0.01817234931293895683346307 1.918281098633072057069171
3.858872877975102255732054 0.03397742533633374417689765 1.910161061981100916185028
3.876292385964904774198203 0.03419492397660521543212298 1.910487309941506506305586
3.858011287331832850355795 0.001932276008996966498720838 1.909943563340830152696981
3.866022574663666055982958 -0.01537848266067012165114747 1.917954850672665134680983
3.858011287331832850355795 -0.03268924133033719592322797 1.909943563340830152696981
3.942507615302704326865069 0.005045691816211310930240241 1.912538076513506712927892
3.935015230605408476094453 -0.01666666666666668031315801 1.92003046121080989117047
3.942507615302704326865069 -0.02828764151712201760369148 1.912538076513506712927892
3.926251101950439803545123 -0.0008615906432707942392418277 1.927112692593710763233616
3.924979357992766537677198 0.001681897272075367349986053 1.926702539279308457054185
3.92752284590810818443174 -0.03501523060540873144574903 1.912538076513509155418546
3.917076819981068602771757 -0.01921015458201284428763067 1.918800001267607857613484
3.910856179241442021066177 -0.03501523060540873838464293 1.911717769884709428040992
3.9187587172531390677932 0.0192101545820128130626081 1.919620307896410027481693
3.909584435283768755198253 0.03419492397660409133131054 1.911307616570307121861561
3.92752284590810818443174 0.03501523060540871062906731 1.912538076513509155418546
3.9079025380116978460876 0.002584771929806876922253167 1.910487309941504729948747
3.915805076023395336903832 -0.01494348538013056879036888 1.918389847953205329389448
3.9079025380116978460876 -0.03247174269006800062520313 1.910487309941504729948747
3.995224617903604169555365 0.02134770742159364242951369 1.926123089517989273034004
3.99044923580720833911073 -0.01666666666666668378260496 1.930898471614401090690194
3.995224617903604169555365 -0.01198562591173969738012062 1.926123089517989273034004
3.981274953837838470604993 -0.001681897272072628655298354 1.932956851109911555752774
3.976876053964864432543891 0.007115902473875293510197082 1.930239848509010203159164
3.985673853710800518257429 -0.04044923580720866107540701 1.926123089517993491881498
3.969383669267568137684066 -0.02546446641261460377969605 1.922747463811708801273426
3.969007187044133466713447 -0.04044923580720866107540701 1.920689084316201888924525
3.976499571741430649751692 0.02546446641261457602412044 1.928181469013503290810263
3.964608287171159872741555 0.03501523060540593507150575 1.917972081715300536330915
3.985673853710800518257429 0.0404492358072086402587253 1.926123089517992825747683
3.957492384697297360673929 0.005045691816208529301146513 1.912538076513505602704868
3.964984769394594099622964 -0.01330287212253074974332989 1.920030461210807448679816
3.957492384697297360673929 -0.03165143606127001491001849 1.912538076513505602704868
4.025164897807629316162092 -0.02005972009597471739095198 1.945224617903603903101839
4.019745522048408403747999 0.00372284904456630927338523 1.940449235807207850612599
4.025164897807629316162092 0.02750541818510734981551025 1.945224617903603903101839
4.014970139952012573303364 -0.04044923580720771738583608 1.935673853710796699090224
4.014970139952012573303364 0.04044923580720769656915436 1.935673853710796255001014
4.004775382096395830444635 0.02134770742159269180104886 1.926123089517989050989399
4.00955076419279166088927 -0.002434861718948346138990946 1.930898471614400424556379
4.004775382096395830444635 -0.02621743085948937540541337 1.926123089517989050989399
3.542872728694459016907103 0.007236372166754469203997502 1.964363643472295084535517
3.535745457388918211449891 -0.01666666666666666296592325 1.97149091477783633408194
3.542872728694459016907103 -0.0260969611665788636667429 1.964363643472295084535517
3.521490914777836600535466 -0.01184241855549662478241935 1.985745457388918389085575
3.514363643472295795078253 -0.03092120927774835714707535 1.992872728694458972498182
3.514363643472295795078253 0.007236372166755107582236661 1.992872728694458972498182
3.528618186083369856476111 -0.03574545738891839186113231 1.96436364347228797910816
3.514363643472288245561685 -0.03574545738891839880002621 1.978618186083370034111795
3.514363643472288245561685 0.03574545738891839186113231 1.978618186083370034111795
3.528618186083369856476111 0.03574545738891839186113231 1.96436364347228797910816
3.591941508502604740726838 0.0008647609003959238430786494 1.958923252397790637502339
3.583883017005210280814254 -0.01666666666666666990481716 1.967373888952803406837688
3.591941508502604740726838 -0.03246857243293740924450219 1.958923252397790637502339
3.574343621644080037924596 -0.002412124055593690974408361 1.976755745699674271520507
3.572862717780344699036732 0.0005496836718770839458336752 1.977686965891532366867978
3.57582452550781315636641 -0.03388301700521041681657408 1.95931539745540606034524
3.565735446474808334471618 -0.01962847439413743788616529 1.970559694585987120518666
3.559157858841146548911638 -0.03388301700521041681657408 1.961569982896731456634143
3.566285130146683357565962 0.01962847439413743788616529 1.968697254202277147072664
3.557676954977410765934565 0.03574545738892700996736096 1.962501203088589996070823
3.57582452550781315636641 0.03388301700521041681657408 1.95931539745540606034524
3.55712727130553663101864 0.007236372166763095983843534 1.964363643472299969516826
3.564254542611072995583754 -0.01184241855549725969121155 1.971490914777845215866137
3.55712727130553663101864 -0.03092120927775761363154317 1.964363643472299969516826
3.60173002211390969051763 -0.04784174493789165177881628 1.951162535727739566482342
3.60116253572773814539687 -0.04784174493789165177881628 1.951320074341998722644576
3.60116253572773814539687 0.04784174493789165871771019 1.951320074341998722644576
3.60173002211390969051763 0.04784174493789165871771019 1.951162535727739566482342
3.602214100303395838409415 -0.04670677216554872113185581 1.951079127531054169253366
3.602725741448279173084757 -0.01553169389432372538006888 1.952158255062108382915653
3.602214100303396282498625 0.0156433843769012599633772 1.951079127531054169253366
3.602158255062107627963996 -0.01635158943814782328551871 1.952315793676367761122492
3.601079127531053192257104 0.01482348883307716032320389 1.951394204759572925667044
3.601079127531053192257104 -0.04752666770937281209841174 1.951394204759572925667044
4.041747660160792676720121 0.0008311735949809225410672697 1.959083513434188406066028
4.033495320321585531075925 -0.01666666666666666990481716 1.967163246958283373544418
4.041747660160792676720121 -0.03250215973835241661804574 1.959083513434188406066028
4.025094982246352870447481 -0.0001340094837982868975108375 1.975228991730151317796071
4.024946984010328243641652 0.0001619869882522528218692787 1.975215002977924294569334
4.024999063612174410309308 -0.02071536246338804426736502 1.964804305756558289175473
4.035275751349742812124077 -0.03349532032158559352597038 1.958748920130823911733842
4.023070634347992502455327 -0.00418270528051965968796555 1.973204643831790727759312
4.023070634347992502455327 0.004182705280519653616433384 1.973204643831790727759312
4.024999063612174410309308 0.02071536246338803732847111 1.964804305756558289175473
4.035275751349742812124077 0.03349532032158559352597038 1.958748920130823911733842
4.02677949464033169135746 -0.01683052643056946739985591 1.956389978929098827364896
4.022974715713814042317154 0.003722849044566314911236526 1.962779957858197699138714
4.02677949464033169135746 0.02427622451970210329386113 1.956389978929098827364896
4.021046286449632134463172 0.0001340094837982806904534 1.971180295933430137722553
4.022922636111967875649498 -0.003886708808469119778850054 1.973190655079563704532575
4.091992414208458939128832 0.001954485250750489979537639 1.959962071042291364975085
4.083984828416918233529032 -0.01666666666666666990481716 1.96796965683383406897633
4.091992414208458939128832 -0.03137884808258285113113928 1.959962071042291364975085
4.075455830457152650581065 -0.0003913292528650617820192015 1.975847159710016898159779
4.074934418288927773232899 0.0006514950835848545146467004 1.975717076794656801297378
4.075884081133369640781439 -0.03398482841691819605900449 1.959868909550285920317947
4.066796749582026748726094 -0.01770949100311658419570904 1.967522672138255490636993
4.059217414466703033326667 -0.03398482841691819605900449 1.959552007770067216796406
4.067355083173604057833472 0.01770949100311658419570904 1.967746412426468527456791
4.05869600229847904415692 0.03372466258619839785115602 1.95942192485470734197861
4.075884081133369640781439 0.03398482841691819605900449 1.959868909550285920317947
4.058137668706901735049541 0.001060515859593729685178554 1.959198184566494527203417
4.066275337413802759556347 -0.01599748005993800042956465 1.967392589222895837863803
4.058137668706901735049541 -0.03305547597946972837590351 1.959198184566494527203417
4.142829235932117271090647 0.00697541559270123141117681 1.964146179660582802739555
4.135658471864236851445185 -0.0166666666666666664353702 1.971316943728469439633955
4.142829235932117271090647 -0.02635791774063210579637229 1.964146179660582802739555
4.126999390989110949590213 -0.0006514950835843054746665537 1.977650886072696012618621
4.125511074181867243737543 0.00232513853090368736303839 1.976814064349035948708888
4.128487707796350214550785 -0.03565847186423702630531096 1.964146179660582802739555
4.117503488390325649959323 -0.01964330028115466447724557 1.968806478557493466752248
4.111821041129683607096013 -0.03565847186423703324420487 1.962472536213266893767582
4.119828626921224312695813 0.01964330028115466100779862 1.970480122004809597768826
4.110332724322439901243342 0.03398482841691764094749217 1.961635714489607495991663
4.128487707796350214550785 0.03565847186423702630531096 1.96414617966058302478416
4.108007585791540350328432 0.001954485250749937903791409 1.95996207104229114293048
4.116015171583081944106652 -0.0153636764995010374756923 1.967969656833833846931725
4.108007585791540350328432 -0.03268183824975200851836732 1.95996207104229114293048
4.185853820339405118033937 -0.006975415592711099385669904 1.992829235932117803997699
4.178683056271524698388475 0.01201638960485815199596971 1.985658471864235607995397
4.185853820339405118033937 0.03100819480242739817343889 1.992829235932117803997699
4.171512292203642502386174 -0.03565847186423591608228634 1.978487707796349859279417
4.171512292203643390564594 0.03565847186423590914339243 1.978487707796349859279417
4.15717076406788166309525 0.006975415592700124657599137 1.964146179660581914561135
4.164341528135762970919131 -0.01201638960486912932612569 1.971316943728467663277115
4.15717076406788166309525 -0.03100819480243837550359487 1.96414617966058213660574
3.493169241696075122405318 0.009015450176460285125479288 2.015846208480384760264315
3.486338483392151132989056 -0.01666666666666669072149887 2.022676966784306085145317
3.493169241696075122405318 -0.02431788315687304774526112 2.015846208480384760264315
3.472676966784298713264434 -0.01065636654903844883490738 2.036338483392151399442582
3.465846208480370282956073 -0.03032818327452310724900997 2.043169241696075388858844
3.465846208480370282956073 0.009015450176446235600047352 2.043169241696075388858844
3.479507725088216929520968 -0.03633848339215135087032493 2.015846208480371437588019
3.465846208480364509796345 -0.03633848339215135087032493 2.029507725088217195974494
3.465846208480364509796345 0.03633848339215131617585541 2.029507725088217195974494
3.479507725088216929520968 0.03633848339215132311474932 2.015846208480371437588019
3.527636357888869866883397 0.0004484676665449231791095441 2.022812109777675892985371
3.526654529694344120116511 -0.002412124055596229742215453 2.024242405638746689078289
3.523945892637128540769709 -0.003005150058834514352479328 2.026951042695961824335882
3.522219083774438708189791 0.0004484676665449284374900807 2.028229383892106607589767
3.518545430194280232427673 -0.0195272583888078388181242 2.01613330613868324547866
3.512399987083258956488407 -0.03574545738892953572474198 2.007575738972077417088258
3.515388325470522268290097 -0.02012028439204612342838807 2.021398625588177289102987
3.509006034833148213181175 -0.03378180099987829893004587 2.012011184891969506338683
3.51583679313706465308087 0.02012028439204608873391855 2.018841943195898824825463
3.507279225970458824690468 0.0363384833921678168655589 2.013289526088114289592568
3.520509086583322844177246 0.01952725838880779718476077 2.015684838472140860687887
3.511418158888734097899942 0.03378180099987827811336416 2.009006034833148213181175
3.521490914777848590944132 -0.01666666666666669072149887 2.014254542611070064594969
3.514363643472301568237981 -0.02609696116656710918046969 2.007127271305535032297485
3.514363643472301568237981 0.007236372166766230629164625 2.007127271305535032297485
3.506830758303916439899695 0.009015450176476766733224544 2.015846208480392309780882
3.513661516607832879799389 -0.01065636654902439584002849 2.022676966784321628267662
3.506830758303916439899695 -0.03032818327452553586187634 2.015846208480392753870092
4.192324560368263064447092 0.003947362209581759331933348 2.011622801841317809135035
4.18464912073652683943692 -0.01666666666666666990481716 2.019298241473054922323627
4.192324560368263064447092 -0.02938597112375157527353053 2.011622801841317809135035
4.176129919538913881638109 -0.0003717357285578353626176451 2.02650165526747372268801
4.175286157973038037027891 0.001315787403194745505685681 2.026029629430155409863801
4.180503519238571996652354 -0.02030759260076770919556388 2.016161991102810802090062
4.189999421837358184461664 -0.03464912073652808011114956 2.010307014438123651700607
4.174309456571863918838972 -0.004012661662658875520726109 2.024681192300423315799662
4.174309456571863918838972 0.004012661662658876388087847 2.024681192300422871710452
4.180503519238571996652354 0.02030759260076770572611693 2.016161991102810802090062
4.189999421837358184461664 0.03464912073652807317225566 2.010307014438123651700607
4.185853820339404229855518 -0.006975415592714810826546756 2.007170764067879975556252
4.178683056271522033853216 0.01201638960485815373069318 2.014341528135759951112504
4.185853820339404229855518 0.03100819480243111395112443 2.007170764067879975556252
4.172488993604813956039834 0.0003717357285578359047187313 2.022860729333372464822105
4.173465695005988074228753 -0.002325138530906294652422783 2.024209166463104558886243
4.238377198158680414508126 -0.003947362209583788091038503 2.042324560368263597354144
4.230701758526944189497954 0.01403509186027721879208574 2.034649120736527372343971
4.238377198158680414508126 0.03201754593013822480784825 2.042324560368263597354144
4.223026318895207964487781 -0.03464912073652767765530314 2.026973681104790703244589
4.223026318895207964487781 0.03464912073652767071640923 2.026973681104790259155379
4.207675439631735514467437 0.003947362209581356876086922 2.011622801841316920956615
4.215350879263471739477609 -0.01403509186027965260912254 2.019298241473054478234417
4.207675439631735514467437 -0.03201754593014066729850242 2.011622801841316920956615
3.478365106638795722915347 0.0007199131599395790269760309 2.072354806521143011366348
3.477222488189352311849234 -0.003005150058826266609712796 2.074217338130525778439051
3.468106492986543276657585 -0.01522684034679146897195423 2.084053246493271949191239
3.460133116233177652532049 -0.03261342017339768223349594 2.092026623246635796959936
3.460133116233177652532049 0.002159739479814725641310114 2.092026623246635796959936
3.469249111435985355456069 -0.02039172988543248854487189 2.066243961377159266135095
3.463560971581495895321723 -0.03633848339215962203185839 2.05755067146385606235981
3.46013311623317587617521 -0.03405324649327285541078325 2.076079869739905436887284
3.46013311623317676435363 0.03405324649327288316635887 2.076079869739905436887284
3.471534348334863295804098 0.02039172988543253364768226 2.065524048217223018752975
3.46241835313205292834482 0.03405324649327288316635887 2.059413203073238385343302
3.472676966784306706870211 -0.01666666666666663867979459 2.063661516607839807591063
3.465846208480373835669752 -0.02431788315687877233273184 2.056830758303919814977689
3.465846208480373835669752 0.009015450176454557068561613 2.056830758303919814977689
4.242948152646878412497244 0.007688915881269052683688603 2.064740763234390374947225
4.235896305293756824994489 -0.01666666666666666296592325 2.07179261058751240653919
4.242948152646878412497244 -0.02564441745206427758496659 2.064740763234390374947225
4.227374300689559660781924 -0.0003773425417271438495406266 2.077751643231286582391704
4.225904143438484084072115 0.002562971960423604186884994 2.076658828521938282563042
4.232641138208752096261378 -0.02054542603028548103383244 2.067290258945280179148085
4.241632365243683366884397 -0.03589630529375693185345497 2.062177791273967830676384
4.225434921007749977661661 -0.004256101905345960507986991 2.07581226354947734336065
4.225434921007749977661661 0.004256101905345960507986991 2.07581226354947734336065
4.232641138208752096261378 0.02054542603028548103383244 2.067290258945280179148085
4.241632365243683366884397 0.03589630529375693185345497 2.062177791273967830676384
4.238377198158678638151287 -0.003947362209584655452776492 2.057675439631735159196069
4.230701758526942413141114 0.01403509186027722052680922 2.065350879263471384206241
4.238377198158678638151287 0.03201754593013909910848014 2.057675439631735159196069
4.223495541325940294541397 0.0003773425417271440121709525 2.073872883867668548418806
4.223964763756674400951852 -0.001315787403195212146300719 2.074719448840129487621198
4.285259236765607937513778 -0.007688915881270458677065882 2.092948152646878057225877
4.278207389412486350011022 0.01154072274581950663385754 2.085896305293756469723121
4.285259236765607937513778 0.03077036137290949449618616 2.092948152646878057225877
4.271155542059364762508267 -0.03589630529375664735880491 2.078844457940633994041946
4.271155542059364762508267 0.0358963052937566265421232 2.078844457940633994041946
4.257051847353121587502756 0.007688915881268744770271617 2.064740763234390374947225
4.264103694706243175005511 -0.01154072274582123615316309 2.07179261058751240653919
4.257051847353121587502756 -0.03077036137291119799463956 2.064740763234389930858015
3.475947272689061229300478 0.0004547190582429468368869108 2.124507446369180652112618
3.475814675638212225550205 -0.0007199131599407755524935859 2.125094762478272336636564
3.467576104783150370280964 -0.01575722855018397636217564 2.13378805239157598450106
3.459470130978936630583576 -0.03287861427509355949361236 2.141894026195787947841609
3.459470130978936630583576 0.001364157174725579013685461 2.141894026195787947841609
3.467708701833998041763607 -0.01784129888485035814182922 2.116988788674058152849966
3.459867922131481421388344 -0.03405324649327413216726157 2.108428095811603064646533
3.459470130978936630583576 -0.0337880523915762148723374 2.125682078587362244803671
3.459470130978936186494366 0.03378805239157624262791302 2.125682078587361800714461
3.467973895935695161085732 0.01784129888485041365298045 2.116534069615817692522342
3.459735325080632861727281 0.03378805239157624262791302 2.109015411920695193259689
3.468106492986543720746795 -0.01666666666666663521034764 2.115946753506725563909185
3.460133116233177652532049 -0.03117359385351732570246241 2.107973376753362604318909
3.460133116233178540710469 0.002159739479816004566192778 2.107973376753362604318909
4.289904241146660801575763 -0.002114910624005825971055694 2.14201915177066748441348
4.281923392917328818896294 0.01525672625066279083916321 2.134038303541335057644801
4.289904241146660801575763 0.03262836312533137772540215 2.14201915177066748441348
4.285259236765606161156938 -0.03589630529375723022589284 2.121155542059363519058479
4.279136390288695857009316 -0.01993460883509248771083833 2.129841360496698143833783
4.288046239394239123043917 -0.03403830354133525332160914 2.139456179810243163785799
4.279136390288695857009316 0.01993460883509253975254261 2.129841360496698143833783
4.288046239394239123043917 0.03403830354133528107718476 2.139456179810243163785799
4.285259236765606161156938 0.03589630529375725798146846 2.121155542059363519058479
4.285259236765606161156938 -0.00768891588127104154415381 2.107051847353121232231388
4.278207389412484573654183 0.01154072274581955000194444 2.114103694706242819734143
4.285259236765606161156938 0.03077036137291011899663751 2.107051847353121232231388
4.27208454293557426950656 0.0007049702080019759620199693 2.122789513143577000420237
4.273013543811785552861693 -0.00256297196042387306902377 2.124423484227789593603575
3.47574265413182326156516 0.0005758701471600826500216175 2.174833216015336745385866
3.475803229676281524973547 -0.0004547190582430642559821909 2.175348510618038133657137
3.467818406960985200271352 -0.01551492637235040578103096 2.18390920348049322186057
3.459773008701229279893141 -0.03275746318617717145471602 2.191954601740246477703522
3.459773008701230168071561 0.001727610441476389816634063 2.191954601740246477703522
3.467757831416526048684545 -0.01769725587206983502541746 2.167303112358283101457346
3.45959128206785404557877 -0.03378805239157636752800329 2.158681843951369305756316
3.459773008701229279893141 -0.03390920348049346333407783 2.175863805220737745571569
3.459773008701229279893141 0.03390920348049343557850221 2.175863805220737745571569
3.467636680327609965956981 0.01769725587206978645316013 2.166727242211124782045317
3.459651857612312753076367 0.03390920348049343557850221 2.159197138554071138116797
3.467576104783150814370174 -0.01666666666666669072149887 2.166211947608423393774046
3.459470130978937518761995 -0.03196917615860764977364639 2.158105973804211430433497
3.459470130978937518761995 0.001364157174725677025561854 2.158105973804211430433497
4.29060482245062679851344 -0.001274213059246203597757452 2.191879035509874285025944
4.2824838579605009059037 0.01581719129383586663895045 2.183758071019748392416204
4.29060482245062679851344 0.03290859564691793470725401 2.191879035509874285025944
4.289904241146660801575763 -0.03403830354133531577165428 2.173942544687996747398984
4.282063509178120952469726 -0.01779637456108405790811133 2.182488246864537462244016
4.290324589929040755009737 -0.03375807101974873797312071 2.191174065301871642930109
4.282063509178120952469726 0.01779637456108405790811133 2.182488246864537462244016
4.290324589929040755009737 0.03375807101974873797312071 2.191174065301871642930109
4.289904241146660801575763 0.03403830354133532271054818 2.173942544687996747398984
4.289904241146660801575763 -0.002114910624005888421100829 2.157980848229332337950837
4.281923392917327930717875 0.01525672625066276655303454 2.165961696458664320630305
4.289904241146660801575763 0.03262836312533141935876557 2.157980848229332337950837
4.274082660948788969790257 0.000424737686415401632933353 2.174507398635205479564547
4.274222777209581991542109 -0.0007049702080019885387651701 2.175072252582414211730111
3.476403575418848035383235 0.001655410543377812751519862 2.225251835124527843845499
3.476943345616956726473745 -0.000575870147160064543845337 2.226367475469796630704877
3.469977487753415079652086 -0.0133558455799240947264872 2.234988743876709982316697
3.462471859691763853561497 -0.03167792278996854615780165 2.242494371938354991158349
3.462471859691763853561497 0.004966231630120339357592485 2.242494371938354991158349
3.469437717555307276739995 -0.01889794735720452117933021 2.218861847408147625060337
3.460852549097443109360484 -0.03390920348049342170071441 2.209700808803125582358007
3.462471859691765629918336 -0.03498874387671109531527947 2.227483115815060976672157
3.462471859691765629918336 0.03498874387671112307085508 2.227483115815060532582947
3.468358177159093003183443 0.01889794735720456281269364 2.217206436864774588002547