# geometry NO_DATA 524
#  x  y  z
3.683922415113363157956883 0.01548850310660625922976052 2.032155169773272707089973
3.691961207556682111885493 0.032744251553303134472106 2.040193962216591216929373
3.691961207556682111885493 -0.001767245340090616446265814 2.040193962216591216929373
3.673623522280254682925715 -0.02165177326369438839948067 2.045275295543948601562079
3.668898817824203462123478 0.002232151157537143413428504 2.040550591087897824849051
3.673623522280254682925715 0.0261160755787686049700369 2.045275295543948601562079
3.683051462947286580629225 -0.01764002263073807114102109 2.032462381167256637581886
3.691576933372640922925711 -0.03392241511336354514716263 2.040398769812580059834772
3.679148293179988815637671 -0.02426819860527265962368837 2.03636555093455395848423
3.680456505850778547994651 -0.04055059108789813016038295 2.044891021359907856691507
3.679148293179988815637671 0.02426819860527272901262741 2.03636555093455351439502
3.680456505850778547994651 0.04055059108789819954932199 2.044891021359907412602297
3.683051462947286580629225 0.01764002263073807114102109 2.032462381167256637581886
3.691576933372640922925711 0.03392241511336353820826872 2.040398769812580059834772
3.675396944688008815660396 -0.0003842741840411963323564937 2.024218781127949284837086
3.67491026670597342729252 0.0005890817800302057712091841 2.024321184925943484245181
3.671007096938675662300966 0.007217257754564864076496367 2.028224354693240805147525
3.667590605153414173855708 -0.0003842741840411276481488667 2.032025120662543926641774
3.734114616092893967902455 0.01510410114754561113070697 2.03177076781421206419509
3.742057308046446539862018 0.03255205057377280608577053 2.039713459767765524333072
3.742057308046446539862018 -0.002343848278681580354909642 2.039713459767765524333072
3.732840352043068410381466 -0.01803703120625740896620925 2.032059069283507657388554
3.741468226266416507996837 -0.03411461609289385965571029 2.039905660747295623735909
3.724116377329954818975466 -0.03392241511336355208605653 2.040193962216591216929373
3.724116377329954818975466 0.03392241511336355208605653 2.040193962216591216929373
3.732840352043067966292256 0.01803703120625740896620925 2.032059069283507213299345
3.741468226266416507996837 0.03411461609289385271681638 2.039905660747295623735909
3.725486741869545426197874 -0.0005890817800302183479543849 2.023924176350424097847736
3.724801559599749456452855 0.000781282759560527435491184 2.024020276840189147549154
3.716077584886636309136065 0.01548850310660625922976052 2.032155169773272707089973
3.708038792443318687475085 0.0327442515533031414109999 2.040193962216591216929373
3.708038792443318687475085 -0.00176724534009062923985145 2.040193962216591216929373
3.784143370835590047818187 0.01504659166215181927139799 2.03171325832881777273542
3.792071685417795379180461 0.03252329583107591015611604 2.039641572911023104097694
3.792071685417795379180461 -0.00243011250677227508276701 2.039641572911023104097694
3.782566427945120768328024 -0.0182579869284846055266236 2.031756390442863491330172
3.791290402658234803823234 -0.03414337083559076252425868 2.039670327653719805738319
3.773828075860658604057107 -0.03411461609289384577792248 2.039713459767765524333072
3.773828075860658604057107 0.03411461609289384577792248 2.039713459767765524333072
3.782566427945120768328024 0.0182579869284846055266236 2.031756390442863491330172
3.791290402658234359734024 0.03414337083559076252425868 2.039670327653719805738319
3.775419396122476456412187 -0.000781282759560510413517076 2.023799321117961902416482
3.774623735991567308190042 0.0008100375022574250998691481 2.0238136984893104752814
3.765885383907105143919125 0.01510410114754561113070697 2.03177076781421206419509
3.757942691953552571959563 0.03255205057377278526908881 2.039713459767765524333072
3.757942691953552571959563 -0.00234384827868156387503662 2.039713459767765524333072
3.834024214571055466649341 0.01528490419122146073971358 2.031951570857888356158583
3.842012107285527555688986 0.0326424520956107439006999 2.039939463572360445198228
3.842012107285527555688986 -0.002072643713167844105316195 2.039939463572360001109018
3.832463717698807670331007 -0.01816758540664670934505764 2.03177283646108586268042
3.841202069783270278691134 -0.03402421457105594265746262 2.039820307307825153486647
3.823784943746613596005091 -0.03414337083559076252425868 2.039641572911023104097694
3.823784943746613596005091 0.03414337083559079027983429 2.039641572911023104097694
3.832463717698808114420217 0.01816758540664676485620888 2.03177283646108586268042
3.841202069783270278691134 0.03402421457105597041303824 2.039820307307825153486647
3.825285862486593302378424 -0.0008100375022574007053202672 2.023904100011148621263146
3.824535403116603227147152 0.0006908812377226720199269172 2.023844521878880975407355
3.815856629164408708732026 0.01504659166215184876169708 2.031713258328818216824629
3.807928314582204709637381 0.03252329583107594485058556 2.039641572911023104097694
3.807928314582204709637381 -0.002430112506772278118533093 2.039641572911023104097694
3.883877001874566747829931 0.01557932958420065253091202 2.032245996250866770793664
3.891938500937283329506045 0.03278966479210033285740522 2.040307495313583796558987
3.891938500937283329506045 -0.001631005623699039288124202 2.040307495313583796558987
3.882568845747365493537018 -0.01790121644562229011321541 2.032025177206132404705841
3.891247619699560900130564 -0.0338770018745663537007573 2.040160282617094367196842
3.873963678143415911847569 -0.03402421457105594265746262 2.039939463572359557019809
3.873963678143415911847569 0.03402421457105594959635653 2.039939463572360445198228
3.882568845747365493537018 0.01790121644562230746045017 2.032025177206132404705841
3.891247619699560900130564 0.03387700187456636063965121 2.040160282617094367196842
3.875198227922371785325595 -0.0006908812377225976436578847 2.024110890839905252391873
3.874580953032893404497372 0.000543668541233031888879057 2.024037284491660759755405
3.865975785428943822807923 0.01528490419122144686192577 2.031951570857888356158583
3.857987892714471733768278 0.03264245209561071614512429 2.039939463572360445198228
3.857987892714471733768278 -0.002072643713167837600103161 2.039939463572360001109018
3.933748934208940006840294 0.01584521155150854510029745 2.03250700490014679644446
3.941874467104470092237989 0.03292747909378208187591852 2.040637411113704668963464
3.941874467104469648148779 -0.001237055990764940934661942 2.040637411113704668963464
3.932731956338872070233492 -0.01762593608350658536121358 2.032316355463265278302742
3.941337123942821651922941 -0.03374893420894019974154432 2.040510795509636210454119
3.924190822567735992265625 -0.03387700187456638145633292 2.040313820693168800346484
3.924190822567735992265625 0.0338770018745663398229695 2.040313820693168800346484
3.932731956338872070233492 0.01762593608350649168614588 2.032316355463265278302742
3.941337123942822096012151 0.03374893420894015116928699 2.040510795509636210454119
3.925143766604989981061635 -0.0005436685412330973746902751 2.024312564853776308382294
3.924664131896570040680672 0.0004156008756067762857124015 2.024248531020963248749922
3.916122998125433518623595 0.01557932958420059528503732 2.032245996250866770793664
3.908061499062716936947481 0.03278966479210031204072351 2.040307495313583352469777
3.908061499062716936947481 -0.001631005623699081572008929 2.040307495313583796558987
3.983659817877886588632919 0.01665564703544813313085271 2.033001338973170479818009
3.991829908938943294316459 0.03364879824666822116796538 2.041492404763171286674606
3.991829908938943294316459 -0.0003375041757719166339232753 2.041492404763171286674606
3.983291817977061555211549 -0.01738924126218320542758278 2.032965333432507737398964
3.991823196335876122731179 -0.03365981787788675794192983 2.04149120197571365409317
3.974795242371451209351108 -0.03372942338429645026121051 2.041051181480538545542913
3.974795242371451653440317 0.03372942338429640862784709 2.041051181480538989632123
3.983291817977061555211549 0.01738924126218312909974983 2.032965333432507737398964
3.991823196335876122731179 0.03365981787788671630856641 2.04149120197571365409317
3.975128439519072021113288 -0.0003960900509631575601605935 2.024475470429964563123804
3.974767152221313715187989 0.0003264845445533433765557263 2.024440667676759453286195
3.966270576615703369327548 0.01584521155150855550863831 2.032526515724790705519354
3.958135288307851773481616 0.03290796826913833933447862 2.040647166526026623500911
3.958135288307851773481616 -0.001217545166121188852242918 2.040647166526026623500911
4.000125089296460600962746 -0.04982970969135760985757599 2.049954798987817738975536
4.000130346166503869653752 -0.01658677838238902316203571 2.049909597975635211497547
4.000125089296460600962746 0.01665615292657956006405762 2.049954798987817738975536
4.000085145154320898086553 -0.04990959797563524619201658 2.049949289172208644060902
4.000085145154320898086553 0.04990959797563525313091048 2.049949289172208644060902
4.00004520101218208338878 0.04989857834441675799030946 2.049943779356599549146267
4.000090402024364166777559 0.01665564703544817476421613 2.049904088160026560672122
4.00004520101218208338878 -0.0165872842735204084618772 2.049943779356599549146267
3.59326446251612896531924 0.0353720286059942060075123 2.092107566089864256753117
3.586528925032259174088267 -0.01666666666666666990481716 2.085950476819126819805206
3.593264462516129853497659 0.002038695272660869667324945 2.092107566089864256753117
3.586089423858624947172302 0.01578766431939895159564102 2.086528925032258729999057
3.592385460168861843754939 -0.004074594046193567159486193 2.09326446251612896531924
3.592385460168861843754939 0.03564992268499146688132129 2.09326446251612896531924
3.593075793532805484176151 -0.03652892503225918519049742 2.09249734531967312989309
3.592636292359171257260186 -0.03652892503225918519049742 2.093075793532805484176151
3.592636292359171257260186 0.03652892503225918519049742 2.093075793532805040086942
3.593075793532805484176151 0.03652892503225918519049742 2.09249734531967312989309
3.640550591087898357756103 0.002232151157536963002187003 2.068898817824203373305636
3.645275295543949134469131 0.0261160755787685112949692 2.073623522280254150018663
3.645275295543949134469131 -0.02165177326369465554689597 2.073623522280254150018663
3.635733749952823501416788 -0.02468939925975980470562732 2.078516492198258180934545
3.644469820705420914919159 -0.04055059108789821342710979 2.080035305196290984497409
3.623791787742208114764253 -0.03413880817186158711518118 2.089880006195741657393228
3.623791787742207226585833 0.03413880817186158711518118 2.089880006195741657393228
3.635733749952823501416788 0.02468939925975987409456636 2.078516492198258625023755
3.644469820705420914919159 0.04055059108789828281604883 2.080035305196290984497409
3.631814520335300944253731 -0.000805474838528183662879345 2.067380004826171013831981
3.627803154038754307464387 0.007217257754564957751564069 2.070585896284189431071354
3.615861191828138476722643 0.01550977024040169072183204 2.081949410281672463440827
3.607930595914068838681033 0.03298191174559661487108997 2.090107032821137966749347
3.607930595914069726859452 -0.001962371264793233427425889 2.090107032821137522660138
3.673623522280254682925715 -0.04055059108789812322148904 2.064174113368152596592608
3.664174113368152241321241 -0.04055059108789812322148904 2.073623522280254150018663
3.664174113368152241321241 0.04055059108789819261042808 2.073623522280254150018663
3.673623522280254682925715 0.04055059108789819954932199 2.064174113368152596592608
3.673623522280254682925715 -0.02165177326369437799113982 2.054724704456050599077344
3.668898817824203906212688 0.002232151157537157291216312 2.059449408912101375790371
3.673623522280254682925715 0.02611607557876861190893081 2.054724704456050599077344
3.659449408912101464608213 0.002232151157536974711570466 2.068898817824203373305636
3.654724704456050687895186 0.0261160755787684245587954 2.073623522280254150018663
3.654724704456051131984395 -0.02165177326369455840238132 2.073623522280254150018663
4.035538481540459798679876 0.01225637025241472360947981 2.078923036919081202000825
4.042769240770230254611306 0.03112818512620736666196564 2.086153796148851213843045
4.042769240770230254611306 -0.006615444621377919443006022 2.086153796148851213843045
4.026142518245702461854307 -0.03553848154045931295730298 2.071692277689311190158605
4.026142518245702461854307 0.03553848154045931295730298 2.071692277689310746069395
4.018911759015932005922878 -0.01666666666666666990481716 2.064461518459540734227176
4.009515795721174669097309 -0.03104829684192971644973724 2.057230759229770278295746
4.009515795721174669097309 0.002285036491403620757811854 2.057230759229770278295746
4.084015895041928523312436 0.01530154324947586089167295 2.081968209916142065196709
4.092007947520963639931324 0.03265077162473793009889178 2.089960262395177625904807
4.092007947520963639931324 -0.002047685125786185330459821 2.089960262395177625904807
4.080366891876941792816069 -0.01955437658238800766041798 2.079684330168346306777494
4.089802799313837944339411 -0.03401589504192872870369513 2.088437675896646972262261
4.071692277689310301980186 -0.03553848154045927132393956 2.086153796148851213843045
4.071692277689310301980186 0.03553848154045925744615175 2.086153796148851657932255
4.080366891876941792816069 0.01955437658238796255760761 2.079684330168346306777494
4.089802799313837944339411 0.03401589504192870788701342 2.088437675896646972262261
4.074579987605032371789093 -0.002205148207125961004604342 2.073214864187841399711942
4.073136132647172225063059 0.0006825617085953620058469404 2.072453570938575850846064
4.064461518459540734227176 0.0122563702524147027927981 2.078923036919080757911615
4.057230759229771166474166 0.03112818512620731462026136 2.086153796148851213843045
4.057230759229771166474166 -0.006615444621377886483259978 2.086153796148851213843045
4.125977743251817209113597 0.001351241726892210906485481 2.075373498475074462987777
4.126502302921077003361461 -0.0003021223883712652606876869 2.076200180532706163205603
4.119369150120450129293204 -0.0139641832128820815583925 2.08468457506022541991797
4.111711437650563460977082 -0.03198209160644097798220642 2.092342287530112532323301
4.111711437650563460977082 0.004053725180676839151550084 2.092342287530112532323301
4.125485401203333957198538 -0.002335925823858905989865997 2.07518327881496222886426
4.117001006675814700486171 -0.01870047010215432695123816 2.082985111633885999538052
4.110360195923671966511392 -0.03468457506022558367586583 2.091659725821517046284725
4.117001006675814700486171 0.01870047010215428184842779 2.082985111633885999538052
4.110360195923671078332973 0.03468457506022555592029022 2.091659725821517046284725
4.125485401203333069020118 0.002335925823858834866203482 2.07518327881496222886426
4.124960841534073274772254 -0.0006825617085954300937433725 2.074356596757330528646435
4.124468499485589134678776 0.0003021223883711941370251719 2.074166377097218294522918
4.115984104958070766144829 0.01530154324947585915694948 2.081968209916142065196709
4.10799205247903564952594 0.03265077162473793009889178 2.089960262395177625904807
4.107992052479034761347521 -0.002047685125786187498864166 2.089960262395177625904807
3.588544944167447070526578 -0.003746066999063231602040691 2.142291011166510106278338
3.580835955333957265622757 0.01416928866729116366640628 2.134582022333020745463728
3.588544944167447070526578 0.03208464433364555806749152 2.142291011166510106278338
3.590306051466687797812938 -0.03394740935089611555408595 2.124078885973655239638447
3.581787874807145222177951 -0.01852943168391717188026036 2.133036563806832930367818
3.589179557149571486718287 -0.03458202233302105910173196 2.141676935148947524822916
3.581787874807144778088741 0.01852943168391717188026036 2.133036563806832930367818
3.589179557149571486718287 0.03458202233302105910173196 2.141676935148947524822916
3.590306051466687797812938 0.03394740935089611555408595 2.124078885973655239638447
3.590480626310617484620025 -0.001493078364830494053627774 2.108026295324551657728307
3.582279756142136228902473 0.01578766431939895159564102 2.116052590649103670727982
3.590480626310617484620025 0.03306840700362839724490982 2.108026295324551657728307
3.573761579482593209178276 0.001248688999687728399395903 2.125010268482280473278934
3.573444272991531001082421 -0.0006140760175627756360314247 2.12594165099090570691942
4.134684575060225242282286 0.01396671776003314581482417 2.130632117153124838182521
4.142342287530112798776827 0.03198462615359206479004328 2.138291096896587362152786
4.142342287530112798776827 -0.004051190633525754078436698 2.138291096896587362152786
4.127026862590337685787745 -0.03468457506022558367586583 2.12297440468323728168798
4.127026862590337685787745 0.03468457506022556285918412 2.12297440468323728168798
4.119369150120450129293204 -0.01666666666666668378260496 2.115315424939774757717714
4.111711437650563460977082 -0.02927960815265648678029642 2.107657712469887201223173
4.111711437650563460977082 0.004053725180676840018911822 2.107657712469887201223173
4.175612222096930281622917 0.0006298029719881939776648938 2.125017580875055323019751
4.175778463277455720970011 -0.0002973206109381581422473895 2.125481142666518330486269
4.167928135314220128293528 -0.01540333531553366060162791 2.133963136305320862362578
4.159911566170459096269951 -0.03269980495418851884625866 2.141981568152660386772368
4.159911566170459096269951 0.001893134323121197859843279 2.141981568152660386772368
4.174790476104485392738752 -0.002273294956878855587606436 2.124493155493548002255011
4.166308482465684193130073 -0.0186426410126073610618036 2.131625174679034007141354
4.159279900494892601159336 -0.03396313630532152294527748 2.140631593699343415693193
4.166308482465682416773234 0.01864264101260736453125055 2.131625174679034007141354
4.159279900494892601159336 0.03396313630532152294527748 2.140631593699343859782402
4.174790476104485392738752 0.002273294956878857756010781 2.124493155493548446344221
4.174624234923959953391659 -0.001346171373952503250853718 2.124029593702084994788493
4.173802488931515064507494 0.0002973206109381605274921689 2.123505168320577674023752
4.165320495292712976720395 0.01396671776003316836622936 2.130637187506063678910095
4.157660247646355777817462 0.03197955580065233588404894 2.138293632073056560471969
4.157660247646355777817462 -0.004046120280586000886313691 2.138293632073056560471969
3.589688031828814018808771 -0.002374361805422687057842701 2.192062393634237160711109
3.581750425463050113705776 0.01508375879638485135558756 2.184124787268473699697324
3.589688031828814018808771 0.03254187939819241232042302 2.192062393634236716621899
3.588544944167446182348158 -0.03458202233302110073509539 2.173126966500467993625989
3.581064572866230477643512 -0.01870680960149532362502001 2.181856026801371584156186
3.589230796764266706588842 -0.03412478726847423260437608 2.190813704634549274885558
3.581064572866230477643512 0.01870680960149528199165658 2.181856026801371584156186
3.589230796764266706588842 0.03412478726847420484880047 2.190813704634549274885558
3.588544944167446182348158 0.03458202233302107297951977 2.173126966500467993625989
3.588544944167446182348158 -0.003746066999063267163871949 2.157708988833489271996768
3.580835955333956821533548 0.01416928866729114284972457 2.165417977666978188722169
3.588544944167446182348158 0.03208464433364557194527933 2.157708988833489271996768
3.573355584032740672739692 0.0007914539351408469329898776 2.174147037967882223341576
3.573584201565014328849657 -0.001248688999687786512632348 2.175167109435296453057163
4.176406753035157848330527 0.001548933109104760549867841 2.175142180073947884011432
4.176865076349407956968207 -0.0006322864806049592828821049 2.176232789868802530719449
4.169764532884876473417535 -0.01356880044845714533563452 2.184882266442438325526609
4.162205666106094881229183 -0.03178440022422857058614909 2.192441133221218585447332
4.162205666106094881229183 0.004646799327314279914880046 2.192441133221218585447332
4.169304775624326886429571 -0.01884788625637638312393385 2.168672489143721460180814
4.160828641412006589916928 -0.03396561981393828727471274 2.159564689255836000825184
4.162204232159795402878899 -0.03488226644243808821643782 2.177321965717357699077183
4.162204232159794514700479 0.03488226644243808821643782 2.177321965717356810898764
4.168388942137088548633983 0.01884788625637638312393385 2.16712498998091662727461
4.161286964726256698554607 0.03488226644243808821643782 2.160655299050690647533202
4.167930618822837551817884 -0.01666666666666666296592325 2.166034380186061980566592
4.159912807924769140299759 -0.03143771550159536742885535 2.15801719009303072382977
4.159912807924769140299759 0.001895617831737963056640273 2.15801719009303072382977
3.592543253670149372425158 0.005259522020902991992774567 2.212716268350752191196307
3.585086507340299988300103 -0.01666666666666666296592325 2.220173014680601575321361
3.592543253670149372425158 -0.02807381131243034261268932 2.212716268350752191196307
3.576584614659280791926221 -0.0003371186953705452367564821 2.226921733354652044312161
3.575539468308112311945024 0.001753174006967596343375959 2.226213705698853573267115
3.583022739434104764200129 -0.01921129460877512434846537 2.217147526702579085622347
3.591751799735008354730326 -0.03508650734030092921411637 2.210963094343784796080854
3.575312300688227029610289 -0.00288174663747900461352458 2.225649419383597837907018
3.575312300688227029610289 0.002881746637479008082971532 2.225649419383597393817809
3.583022739434104764200129 0.01921129460877513128735927 2.217147526702579529711556
3.591751799735008354730326 0.03508650734030092921411637 2.210963094343783907902434
3.589688031828814018808771 -0.002374361805422658434905347 2.207937606365762750471049
3.581750425463051001884196 0.0150837587963848773764397 2.215875212731525323306414
3.589688031828814018808771 0.03254187939819240538152911 2.207937606365762306381839
3.574039986717172823205146 0.0003371186953705493025146289 2.224377105412543631501876
3.574267154337057661450672 -0.0007914539351408626539213786 2.224941391727798922772763
3.637283731649247009443116 -0.005259522020902914797579886 2.242543253670150171785735
3.629826985319397625318061 0.0131603186527314147680201 2.235086507340300787660681
3.637283731649247009443116 0.03158015932636573652736445 2.242543253670150171785735
3.622370238989548241193006 -0.0350865073403009916641615 2.227629761010451403535626
3.622370238989548241193006 0.0350865073403009986030554 2.227629761010451403535626
3.607456746329849028853687 0.00525952202090305964699013 2.212716268350752191196307
3.614913492659698412978742 -0.0131603186527312707859716 2.220173014680601575321361
3.607456746329849028853687 -0.03158015932636559774948637 2.212716268350752191196307
4.178191232721322201371095 0.003284599224436795562864777 2.225093366503112957133226
4.179059065778988113493142 -0.001548933109104713061812686 2.227510132669883624600971
4.173235865115540121905724 -0.01009746821779290357201653 2.23661793255776952804581
4.166544831394425330017839 -0.03004873410889636470288977 2.243308966278884764022905
4.166544831394425330017839 0.009853797673310561028303667 2.243308966278884764022905
4.172368032057873321605257 -0.02150019900020817137376028 2.220819098948768832713085
4.163941332221426705473277 -0.03488226644243803964418049 2.210843466003217461235408
4.166544831394425330017839 -0.03661793255777012756624345 2.229926898836654736157925
4.166544831394425330017839 0.03661793255777013450513735 2.229926898836654736157925
4.170632365942541497361162 0.02150019900020817137376028 2.217534499724331809034084
4.164809165279092617595325 0.03661793255777012756624345 2.213260232169988128703153
4.169764532884874697060695 -0.01666666666666666296592325 2.215117733557561141566339
4.162205666106093993050763 -0.02868653400601909458922378 2.207558866778779993467197
4.162205666106093993050763 0.004646799327314233077346195 2.207558866778779993467197
3.642261558778841834538298 0.003569352673052759387234412 2.261307793894210327323435
3.634523117557683313805228 -0.01666666666666664214924154 2.269046235115368403967295
3.642261558778841834538298 -0.02976398066028057565191034 2.261307793894210327323435
3.626015425963160954125897 -0.0003487165223771222441473405 2.276364142485538977211945
3.625246175589796671090426 0.001189784224350934685454639 2.275943608634552361991155
3.631298464435055883825498 -0.01960962489798516797390171 2.266384971775357914935967
3.640508384771873995333635 -0.03452311755768422418810815 2.260118009669859429067174
3.62454394684750136335083 -0.003291674753695649369850118 2.274892663369879830526088
3.62454394684750180744004 0.003291674753695719192470026 2.274892663369879830526088
3.631298464435056772003918 0.01960962489798521654615904 2.266384971775357914935967
3.640508384771873995333635 0.03452311755768423806589595 2.260118009669858984977964
3.637283731649246565353906 -0.005259522020902868827407772 2.257456746329849384125055
3.629826985319397181228851 0.01316031865273143731942529 2.264913492659698768250109
3.637283731649247009443116 0.03158015932636571571068274 2.257456746329849384125055
3.623072467731842216664973 0.0003487165223771921209773572 2.273421184254220239751021
3.623774696474137080315359 -0.001753174006967592223407704 2.274472129518892771216088
3.690003513446605598602446 -0.002258045332236615580084882 2.292261558778842189809666
3.681609418555039869858092 0.01559840555878095127995131 2.284523117557684557255016
3.690003513446606042691656 0.03345485644979851597158316 2.292261558778842189809666
3.673870977333881349125022 -0.03452311755768423806589595 2.276784676336526480611155
3.673870977333881349125022 0.03452311755768422418810815 2.276784676336526480611155
3.657738441221157987826018 0.003569352673052746810489211 2.261307793894210327323435
3.665476882442315620380668 -0.01428709821796481788114264 2.269046235115368848056505
3.657738441221157987826018 -0.03214354910898238604222144 2.261307793894210327323435
4.179418059438249066772642 0.002266920427626920378494368 2.272848860989376440500109
4.178909220039843219751674 -0.003284599224436885768485528 2.275624620815408505336563
4.171200507521918510178693 -0.01213282581141273720748419 2.28560025376096032090345
4.16400063440239964762668 -0.03106641290570632402134876 2.292800126880480071633883
4.16400063440239964762668 0.006800761282880850473742118 2.292800126880480071633883
4.171709346920324357199661 -0.02221818631873047691915879 2.268424747695888754606131
4.165527152597615412332743 -0.0366179325577702177718642 2.258957954148741453792582
4.16400063440239964762668 -0.0356002537609602584534052 2.278400380641440570173017
4.16400063440239964762668 0.0356002537609602515145113 2.278400380641440570173017
4.172727025717134274884756 0.02221818631873047691915879 2.266157827268261648612224
4.165018313199209565311776 0.03560025376096026539229911 2.261733713974773962718245
4.173235865115540121905724 -0.01666666666666666990481716 2.26338206744222958377577
4.166544831394425330017839 -0.02347953566002268857570989 2.256691033721114791887885
4.166544831394425330017839 0.009853797673310649499200942 2.256691033721114791887885
3.695797234543516385230078 -0.01614442144088565692094939 2.304463888069373744826862
3.697898617271758059388276 0.01298614643596400150538095 2.302623627954022200725603
3.697898617271758503477486 -0.04527498931773547147239256 2.302623627954022644814813
3.697364486717815701410927 -0.0457972345435163352700414 2.302362505341132514757874
3.697364486717815257321718 0.04579723454351647404791947 2.302362505341132070668664
3.695263103989573583163519 -0.01666666666666651724915127 2.304202765456483170680713
3.696830356163872455255159 0.01139564010229743296065408 2.302101382728241496522514
3.696830356163872455255159 0.04472897343563076583139448 2.302101382728241496522514
3.742928917797732513150777 0.00757350678639541214504094 2.314644588988662654571726
3.735857835595464582212344 -0.01666666666666668378260496 2.321715671190930141420949
3.742928917797732513150777 -0.0257598265469379146541673 2.314644588988662654571726
3.72722750537164415618463 -0.0005939937809741916915906579 2.327821499152618933692338
3.725668257350091217006138 0.002524502262131802891864663 2.326856244912040239114503
3.727452124942034039634109 -0.03585783559546518173277718 2.313309960537499598842714
3.71763192090724547966829 -0.01978516270977268703967766 2.318487037301109943143729
3.710785458275367876268547 -0.03585783559546518867167109 2.311046580888258539232538
3.718821794718213613606395 0.01978516270977263846742034 2.319415788499188391114103
3.709226210253814493000846 0.03392732711430747338798852 2.310081326647678956476284
3.727452124942034039634109 0.03585783559546515397720157 2.313309960537499598842714
3.708036336442845914973532 0.001116239006754999978088261 2.309152575449601396684329
3.71607267288569165231138 -0.01614442144088583386274394 2.317521783060531248565894
3.708036336442845914973532 -0.03340508188852665122370311 2.309152575449601396684329
3.785355411011336990156906 -0.007573506786395463319383481 2.342928917797732601968619
3.778284328809069947396893 0.01161766214240299993631922 2.335857835595465559208606
3.785355411011336990156906 0.03080883107120145625312801 2.342928917797733046057829
3.771213246606802460547669 -0.03585783559546512622162595 2.328786753393197628270173
3.771213246606802460547669 0.03585783559546511928273205 2.328786753393198072359382
3.757071082202267042760013 0.00757350678639537745057142 2.314644588988663098660936
3.764142164404534973698446 -0.01161766214240307279470521 2.321715671190930585510159
3.757071082202267042760013 -0.03080883107120153258096096 2.314644588988662654571726
4.177708883810582918272303 0.0008839267659128075080993137 2.323175042955329505645068
4.17701738697972579927864 -0.002266920427626927317388272 2.324750466552099048556101
4.168434520198491810560881 -0.01489881313484104491395854 2.33421726009924634936965
4.160543150248114940836786 -0.0324494065674205203753111 2.342108630049623219093746