# geometry NO_DATA 552
#  x  y  z
3.648972322973881521335215 0.04331188541792192758794755 1.994339562444040314659333
3.647944645947762687399063 -0.01666666666666665602702935 1.995628265682842794603857
3.648972322973881521335215 0.009978552084588605125548 1.994339562444040314659333
3.643745504549814828720855 0.008268383870770968160912595 1.997944645947763220306115
3.64057404017798535988959 -0.02300959541032551736172707 1.998972322973881610153057
3.64057404017798535988959 0.0395463631518674432752114 1.998972322973881610153057
3.64699640039295491789062 -0.04794464594776313287605163 1.994680020128034581006204
3.642797258995007059212412 -0.04794464594776313287605163 1.996996400392955450797672
3.642797258995007059212412 0.04794464594776315369273334 1.996996400392955450797672
3.64699640039295491789062 0.04794464594776313981494553 1.994680020128034581006204
3.695342363766394022661643 0.02621314054398003745571799 1.980870776777585939854021
3.690684727532787867687603 -0.01666666666666665602702935 1.983448934038383626443647
3.695342363766394022661643 -0.007120192789353291945575464 1.980870776777585939854021
3.676342846581459156141136 -0.01201709523599035246699263 1.988359941817449350054403
3.666658601863736155479501 0.007351394199454538633253797 1.990692792335717387075533
3.689578620062546665536729 -0.04068472753278784548314206 1.982342826568142424292773
3.664333816148398259571195 -0.03603515610211154018838187 1.990701197786134857281581
3.672911953395879613992747 -0.04068472753278784548314206 1.987262239797625840154183
3.675236739111217509901053 0.03603515610211156794395748 1.987253834347208369948135
3.663227708678157057420322 0.04535042856932370441969127 1.989595090315894099219918
3.689578620062546665536729 0.04068472753278785242203597 1.982342826568142424292773
3.652324785715338251179674 0.04071766803948249219269329 1.993042453754820586553365
3.654649571430676147087979 0.01203390613682546461671308 1.993034048304402894302712
3.652324785715337363001254 -0.01664985576583157336760799 1.993042453754820586553365
3.735943073775846556827673 -0.002445040789037602069894151 1.971167739162967835753193
3.742971536887923278413837 0.01683136632014233316501084 1.971250088989705773201422
3.742971536887923278413837 -0.02172144789821752602909655 1.971250088989705773201422
3.725226735124841148660835 -0.02132296859493396437579271 1.972616994682328206422994
3.734583349201051394317119 -0.03594307377584658735880652 1.972417755030686281614294
3.715588531570251262792226 -0.035379894819087362445309 1.975019404742514028683331
3.715588531570251262792226 0.03537989481908735550641509 1.975019404742514028683331
3.725226735124841148660835 0.02132296859493396090634576 1.972616994682328206422994
3.734583349201051394317119 0.03594307377584660123659432 1.972417755030686503658899
3.726586459699635867082179 -0.002046561485754033911377281 1.971366978814609760561893
3.724258308735502343012058 0.002609740442513265763768704 1.971648568292989178729613
3.714620105180912901232659 0.002195079677858845831200929 1.97405097835317544507916
3.707310052590456539434172 0.02090830783027954054009712 1.976171798934981627127172
3.707310052590456539434172 -0.01651814847456185147978047 1.976171798934981627127172
3.789038829131149643814069 -0.002949880616457181085193762 1.967819563893954404321107
3.794519414565574955133798 0.01942228184802626683724824 1.969197371484634473404185
3.794519414565574955133798 -0.02532204308094062467082708 1.969197371484634473404185
3.773738811229416789672086 -0.02794281916440290516878697 1.96803331543160031635864
3.78485747291270957504139 -0.03903882913115011565885482 1.969343703473331430586768
3.762552729997175049447833 -0.03890399003325278881604277 1.969663542935990108162514
3.762552729997175049447833 0.03890399003325278881604277 1.969663542935990108162514
3.773738811229416789672086 0.02794281916440290516878697 1.96803331543160031635864
3.78485747291270957504139 0.03903882913115011565885482 1.969343703473331430586768
3.777920167447856858444766 -0.005570656699919457680025836 1.966509175852223290092979
3.772282091198988496216771 0.005705495797816775849220505 1.966576595401172022903324
3.761096009966746755992517 -0.002445040789037605105660234 1.968206822905561370617988
3.755548004983373377996259 0.01979228257754852074445928 1.969769630861002429611517
3.755548004983373377996259 -0.02468236415562372054743889 1.969769630861002429611517
3.837077453862800524575505 -0.0005841469737925934508498971 1.970963805983636518703861
3.843538726931399640562859 0.01982664022234143647027693 1.972543792761473735453137
3.843538726931399640562859 -0.02099493416992661426467848 1.972543792761473513408532
3.823807994905433993437782 -0.02463691516263512640283473 1.97006387437596708345211
3.834254392222018026359365 -0.03707745386280070221118876 1.971884864872321063700156
3.813602601307367834237994 -0.03755946129983442349775657 1.970460994332472015599933
3.813602601307366946059574 0.03755946129983442349775657 1.970460994332472015599933
3.823807994905433993437782 0.02463691516263511252504692 1.97006387437596708345211
3.834254392222018026359365 0.03707745386280068833340096 1.971884864872321507789366
3.826631056546216047564712 -0.0042261279665011027700805 1.969142815487281872322001
3.822645932298232018808903 0.00374412052946735069217099 1.968901811768764886778627
3.812440538700165859609115 -0.002949880616457185855683321 1.969298931725270040971054
3.806220269350082396897506 0.01794291401671057467615 1.969937055400292180706856
3.806220269350082396897506 -0.02384267524962493944862274 1.969937055400292180706856
3.892938688927475965328995 0.02298133354686051482707043 1.980042644619385061588446
3.885877377854950687208202 -0.01666666666666664908813544 1.979429355700905279746848
3.892938688927475965328995 -0.01035199978647282151311693 1.980042644619385061588446
3.876555019656819922602153 -0.001978049729594723131487211 1.978533069386414711132716
3.874293972531213547938478 0.002544044521617687057424284 1.978250071990403258226365
3.88552168676703857386201 -0.03587737785495098002952474 1.979073664612993610489866
3.866949664062677705089754 -0.02118876091787905494023825 1.976968973638709714535366
3.868855020100371522318028 -0.03587737785495098002952474 1.97689627994680883205092
3.876199328568908697434381 0.02118876091787909657360167 1.978177378298502819831128
3.866593972974765591743562 0.03531138306292809503350583 1.976613282550797823233779
3.88552168676703901795122 0.03587737785495100084620645 1.979073664612993610489866
3.857344308468535931666565 0.0180605694224688431703818 1.975404877891004717938017
3.864688616937071774515289 -0.000584146973792564611072109 1.976685976242698261629016
3.857344308468535487577356 -0.01922886337005399320920773 1.975404877891004717938017
3.947159490594598807433613 0.03771911317120452133977437 1.990559622576606679800193
3.944318981189196549053122 -0.01666666666666668378260496 1.991019047180199841307058
3.947159490594598807433613 0.004385779837871192805842657 1.990559622576606457755588
3.931841173370445474688495 -0.008288948970835770257981068 1.990130122341279950148873
3.922203874957095770525939 0.01098564785586223814528584 1.988781772898766675439219
3.943091836339372768804878 -0.04431898118919555540351496 1.989791902330376283103419
3.918015016109180681525004 -0.03594126349336464187889106 1.986522609592636934294774
3.926425169672706161350106 -0.04431898118919556234240886 1.986643814185326650800789
3.930614028520621694440251 0.03594126349336464881778497 1.98890297749145661398984
3.91678787125935734536597 0.04162228230416911700650928 1.985295464742813820180345
3.943091836339372768804878 0.04431898118919553458683325 1.989791902330376505148024
3.904188858847915888361513 0.02872623799607863098737326 1.982915096843993918440674
3.908377717695831865540868 0.003770622358576211641256748 1.98517426015012365958512
3.904188858847915888361513 -0.02118499327892623546043538 1.982915096843993918440674
3.999734246612096200124142 0.04854503026462077264202577 1.998810783652524181164267
3.999468493224192400248285 -0.01666666666666665602702935 1.999006761744406945879859
3.999734246612096200124142 0.01521169693128743977128536 1.998810783652524181164267
3.984415238793469704603467 -0.01343984219477868669034848 1.997855080988248710482935
3.969627737750651252923717 0.01613515989085960097848549 1.996507422140208376504233
3.999188216565858766671226 -0.04946849322419294425756675 1.998726485086073090258196
3.968014325514707341113763 -0.04624166875230496798199198 1.994820900367156646382227
3.982521549899192159216454 -0.04946849322419294425756675 1.995888282556863346783871
3.984134962135136071026409 0.04624166875230496104309807 1.997574804329915076905877
3.967734048856373707536704 0.04677317552811200568330108 1.994540623708823234849774
3.999188216565858766671226 0.04946849322419295813535456 1.998726485086073090258196
3.951613412235944977624058 0.0401733075101209924362422 1.991786719746064804326124
3.953226824471888889434013 0.01006679864867563063690614 1.993473241519116534448131
3.951613412235944977624058 -0.02003971021276970687630126 1.991786719746064804326124
4.005385314657438300400827 -0.04439177960177118770213056 1.999777094259210130644533
4.003027015939903954233614 -0.01150425775001756925619567 1.999554188518420261289066
4.005385314657438300400827 0.02138326410173604225084532 1.999777094259210130644533
4.002804110199114084878147 -0.04955418851842028488130509 1.999315362779424010142293
4.002804110199113196699727 0.04955418851842028488130509 1.999315362779424010142293
4.000222905740788981177047 0.04863072555884810632687021 1.998853631299638111684658
4.000445811481579738710934 0.01574320370709449481982922 1.999092457038634140786826
4.000222905740788981177047 -0.01714431814465913056499957 1.998853631299637889640053
3.595273174740992505604709 0.02060378559533117270863301 2.025330610854338075910164
3.590546349481985366480785 -0.01666666666666667684371106 2.03057506753865846249596
3.595273174740992505604709 -0.01272954773800216189683088 2.025330610854337631820954
3.578956010505557117085118 -0.006514011286190727473277562 2.040546349481986432294889
3.572092496788135562724165 -0.03039369410151041006606931 2.045273174740993127329602
3.572092496788135562724165 0.01736567152912896552785504 2.045273174740993571418812
3.588526216902443000122958 -0.04054634948198636290594976 2.028554934959115207959712
3.576935877926014306638081 -0.04054634948198636290594976 2.038526216902443621847851
3.576935877926013862548871 0.04054634948198634902816195 2.038526216902443621847851
3.588526216902443000122958 0.04054634948198634902816195 2.028554934959115652048922
3.62004928885946686278885 -0.04457347626802347223540224 2.007581763590748025194443
3.607581763590747669923076 -0.04457347626802347223540224 2.014277148314087106939496
3.607581763590747669923076 0.04457347626802347223540224 2.014277148314087106939496
3.62004928885946597461043 0.04457347626802347223540224 2.007581763590748469283653
3.627648312403425112648847 -0.01963842573058584631273682 2.002713261865987970367087
3.61789404900069477832858 0.008268383870770961222018691 2.005426523731976384823383
3.627648312403425112648847 0.0361751934721277687567742 2.002713261865988414456297
3.605426523731975585462806 -0.003275897219988508583116138 2.012121908455315022479226
3.602713261865987171006509 0.02463091238136830285476719 2.016104031312665689767982
3.602713261865987171006509 -0.03118270682134531915363773 2.016104031312665689767982
4.047692467573776653466666 -0.01171192657671563108756629 2.004784902471199004025948
4.048846233786888682004701 0.0193138743303943039020254 2.006108506303062810616211
4.048846233786888682004701 -0.04273772748382557301605189 2.006108506303062810616211
4.034760771578546290072609 -0.04769246757377660489440885 2.003631136258086975487913
4.034760771578546290072609 0.04769246757377660489440885 2.003631136258086975487913
4.033607005365434261534574 -0.0166666666666666664353702 2.00230753242622316889765
4.020675309370203898140517 -0.01381179017624096713734438 2.001153766213111584448825
4.020675309370203898140517 0.01952154315709236226394907 2.001153766213111584448825
4.091534716721646702808357 -0.0003881222197830054565503843 2.016604555501795292826728
4.095767358360822285590075 0.02447992783519721549101433 2.020511186086060284594623
4.095767358360822285590075 -0.02525617227476324028190291 2.020511186086060284594623
4.06816507111173564226192 -0.03755933890037208011669634 2.009963687723421266184687
4.082844048867763753207782 -0.04153471672164688738293492 2.01611527103622600876065
4.055731046084245505767285 -0.04602462217872519550931898 2.008208416129220186263638
4.055731046084245505767285 0.04602462217872518857042508 2.008208416129220186263638
4.0681650711117347540835 0.03755933890037208705559024 2.009963687723421266184687
4.082844048867764641386202 0.04153471672164689432182882 2.01611527103622600876065
4.076855738965616815505655 -0.01269128884539184876079077 2.010452972188990550250764
4.06640940284876428734151 0.008201383388313568389982322 2.008208019460451243531907
4.053975377821275039025295 -0.01171192657671562761811934 2.006452747866250163610857
4.051987688910637430694806 0.01764602893534289104748858 2.006942429000588390408666
4.051987688910637430694806 -0.04106988208877415669206812 2.006942429000588390408666
4.132278195295794098740316 -0.01317725974692060542103889 2.045455455042715531277508
4.122955915083823086320081 0.01106698367184433436094526 2.040910910085431684279911
4.132278195295794098740316 0.03531122709060927067348246 2.045455455042715975366718
4.118411370126539239322483 -0.04091091008543160795207783 2.036928060599490830639979
4.118411370126539239322483 0.04091091008543160795207783 2.036928060599490830639979
4.10454454495728349172623 0.02385612119898192218236943 2.02840066615626613000245
4.109089089914568226902247 -0.0003881222197830123954442882 2.032383515642206539553172
4.10454454495728349172623 -0.02463236563854795738159886 2.02840066615626613000245
3.546240908343637698862949 0.02113548659489204034622745 2.074894578251254007028592
3.542481816687275575361582 -0.01666666666666664908813544 2.081808651641083862671167
3.546240908343637698862949 -0.01219784673844128038144863 2.074894578251254007028592
3.534817407647841580597969 0.001337848587799619296673237 2.092481816687275397725898
3.530912090264770597514143 -0.0244773014328093507785411 2.096240908343637521227265
3.530912090264770597514143 0.02715299860840857462673803 2.096240908343637521227265
3.540581035782038643588976 -0.04248181668727561005605153 2.07990787073584693089856
3.532916626742605092914573 -0.04248181668727561699494544 2.090581035782038910042502
3.532916626742605092914573 0.04248181668727563781162715 2.090581035782038465953292
3.540581035782038643588976 0.04248181668727563087273325 2.07990787073584693089856
3.560231540125397664553475 -0.04653079981474170928601453 2.05515521243516019467279
3.55515521243516019467279 -0.04653079981474170234712062 2.06114871405563526707283
3.55515521243516019467279 0.04653079981474170928601453 2.06114871405563526707283
3.560231540125397664553475 0.04653079981474170928601453 2.05515521243516019467279
3.561887255473104918479521 -0.03637814443426574950724017 2.051734600092629534628941
3.558545527875496716774251 -0.006514011286190711860766278 2.053469200185258358715146
3.561887255473104918479521 0.02335012186188432231626066 2.051734600092629534628941
3.553469200185258358715146 -0.004679663425716918886965168 2.059462701805733431115186
3.551734600092629534628941 0.02518446972235811875950873 2.063721603333578791250602
3.551734600092629534628941 -0.03454379657379195306399211 2.063721603333578791250602
4.148439452751894407356303 -0.01264676829857586462524388 2.053570496432150616072931
4.149219726375946493135416 0.0191260177866522974865493 2.05480017199214337608737
4.149219726375946493135416 -0.04441955438380401632869621 2.05480017199214337608737
4.146419884878535633276897 -0.04843945275189483201661034 2.052790222808098086204609
4.146419884878534745098477 0.04843945275189481813882253 2.052790222808097642115399
4.145639611254482659319365 -0.01666666666666667684371106 2.051560547248104882100961
4.143620043381123885239958 0.009506436423739149724210229 2.050780273624052352232638
4.143620043381123885239958 0.04283976975707248779912106 2.050780273624052352232638
4.176147470312356446697777 0.001710076286790428905584815 2.075562605974432095479187
4.176856292371270207297584 -0.000292432168962732282058159 2.076563860202308653413183
4.182808983954272363803284 0.01219781533496654309101093 2.085043409620123799896874
4.188052853478361647887596 -0.00617892761849055550255061 2.092521704810061500268148
4.188052853478360759709176 0.03057455828842364081721072 2.092521704810061500268148
4.175048546207624333703734 -0.003907924496254376253712159 2.074756114038662779819333
4.166568996789809631309254 -0.02028215899395830953966247 2.068578945973856164641802
4.173620612477543900808996 -0.03504340962012376242684653 2.077864987327440182696137
4.166568996789809631309254 0.02028215899395830260076856 2.068578945973856608731012
4.173620612477543900808996 0.03504340962012376242684653 2.077864987327440182696137
4.175048546207624333703734 0.003907924496254371049541732 2.074756114038662779819333
4.174339724148710573103926 -0.001905416040501215282909619 2.073754859810786221885337
4.173240800043978460109884 0.000292432168962727077887731 2.072948367875016906225483
4.164761250626163757715403 -0.01264676829857585768634998 2.066771199810210291047952
4.157380625313081168314966 0.005925314408592019695121156 2.061400523681172991530275
4.157380625313081168314966 -0.03121885100574373420045937 2.061400523681172991530275
3.512192204116296512239614 -0.03451381311306528365534518 2.146706017229361496134743
3.511037076214105212557115 -0.007768445321007654176537205 2.143412034458723525176538
3.512192204116296512239614 0.01897692247104996662865339 2.146706017229361940223953
3.520782475510859654832529 -0.04053317533930076571602186 2.111780217883625798691583
3.515074200654264124921156 -0.03394520979802505278311031 2.125152901779654435188149
3.514789898996744099690659 -0.04341203445872428290375211 2.13708615611597174677172
3.515074200654264124921156 0.03394520979802507359979202 2.125152901779654435188149
3.514789898996744099690659 0.04341203445872429678153992 2.13708615611597219086093
3.520782475510859654832529 0.04053317533930077265491576 2.111780217883625798691583
3.52273792758481585352115 -0.02252866008483448562182971 2.104733412330348940599833
3.518469082287932536701192 0.001337848587799619296673237 2.109466824660698236471035
3.52273792758481585352115 0.02520435726043371293947359 2.104733412330348940599833
3.512760807431337006789818 0.01007870112539098125803427 2.122839508556727317056811
3.511321377871625237787612 -0.007199842005967418967493643 2.131478780122406213592967
4.198259078220000439785053 -0.01007120272939261880484896 2.105038653748636079399148
4.199129539110000308710369 0.02152120882394128326131622 2.107465924827272907293718
4.199129539110000308710369 -0.04166361428272652434046108 2.107465924827272907293718
4.196895113444149671977357 -0.04825907822000057023625885 2.104168192858636210473833
4.196895113444149671977357 0.04825907822000057023625885 2.104168192858636210473833
4.196024652554149803052042 -0.0166666666666666664353702 2.101740921779998494400843
4.194660687778299923422765 0.01045689355496710881698874 2.100870460889999069564738
4.194660687778299035244345 0.04379022688830044862662305 2.100870460889999069564738
4.219896981413180370168448 -0.02596678583815204000018184 2.145863767251332099306182
4.216152839829591769671424 -0.0009059180021542521683147742 2.141727534502664287430207
4.219896981413180370168448 0.02415494983384353436250969 2.145863767251332099306182
4.212016607080924401884658 -0.04172753450266445535143944 2.132494832553302188671296
4.212016607080924401884658 0.04172753450266445535143944 2.132494832553302188671296
4.20413623274866754542245 0.01498966510660516837649681 2.119125897855272278036409
4.208272465497335801387635 -0.01007120272939262053957243 2.12835859980463437679532
4.20413623274866754542245 -0.03513207056539040251674777 2.119125897855272278036409
3.517752896233441450846158 -0.02853306768374908042318339 2.196285963917190109384592
3.514447502240933829398273 -0.002627806516033159237727412 2.192571927834381817490339
3.517752896233441450846158 0.02327745465168277322343116 2.196285963917190109384592
3.512522628828052440042029 -0.04437368131341427185398985 2.158073518155222636494273
3.511787554238031461295577 -0.03694560914779688315379147 2.171026148739080507965582
3.515993824970055303680283 -0.04257192783438260713646528 2.184879656062454156284502
3.511787554238031905384787 0.03694560914779685539821585 2.171026148739080952054792
3.515993824970055303680283 0.04257192783438257938088967 2.184879656062454600373712
3.512522628828052440042029 0.04437368131341426491509594 2.158073518155222636494273
3.511711380688951500417261 -0.03547545996775527954447682 2.1528131593432924262288
3.510075429359414744823198 -0.007768445321007672391133703 2.155626318686584941275441
3.511711380688951500417261 0.01993856932573993823165637 2.1528131593432924262288
3.509340354769394210165956 0.00923859450104924651014926 2.168578949270442812746751
3.510241231508909542924357 -0.01104034798008096673882505 2.178718420511007725082209
4.237160124958069928879922 0.01054920930812849183544344 2.173389084350056510430704
4.238991969460131237212863 -0.006885520304007197896212222 2.182106449156123950672281
4.240295844466505315040195 0.009493270316753812249066513 2.19388254264146143057701
4.239767874970818084534585 -0.01772260565804134602174713 2.196941271320730582061742
4.239767874970818084534585 0.03670914629154896358098625 2.196941271320730582061742
4.236837585432310149258228 -0.03410139627880236223855803 2.179952065128303750896066
4.231110021777169549750397 -0.04021885363734054030793175 2.166344127140906294926026
4.238141460438685115263979 -0.04388254264146182470618385 2.191728158613640786711585
4.23814146043868422708556 0.04388254264146182470618385 2.191728158613640786711585
4.233264405804989749526612 0.03410139627880236223855803 2.168498511168726938791451
4.232941866279230858083338 0.04388254264146182470618385 2.175061491946974179256813
4.231432561302929329372091 -0.01666666666666666990481716 2.159781146362659054460664
4.227536842149849150018781 -0.01068706436481372049063232 2.154890573181329926910621
4.227536842149849150018781 0.02264626896851961238010809 2.154890573181329926910621
3.537320834418708592750136 0.01581490513875942818811104 2.228494070720048902956023
3.543021596063423039879581 -0.004413381849329931112813075 2.238608214214093727889576
3.548917160395295589125908 0.01620451051307490036856862 2.249148238472092664608226
3.54911196308245369124279 -0.01627706129235119425491263 2.249574119236046332304113
3.54911196308245369124279 0.04868608231850099499204987 2.249574119236046332304113
3.543014670804442989293648 -0.03689495365475602139948563 2.238601288955113677303643
3.53379331497704685105532 -0.0377467151826632665856387 2.222360503052400293455548
3.548910235136315538539975 -0.0491482384720927506505106 2.249141313213112169933083
3.548910235136315538539975 0.0491482384720927645282984 2.249141313213112169933083
3.533800240236026901641253 0.03689495365475602139948563 2.222367428311381232219901
3.539494076621761742273975 0.0491482384720927506505106 2.232474646546445118389101
3.528099478591312454511808 -0.0166666666666666664353702 2.212253284817336407286348
3.524578884408630763402925 -0.01488109133336987591200717 2.206126642408667848371806
3.524578884408630763402925 0.01845224199996345348928628 2.206126642408667848371806
4.245379808742869798265929 0.01472157877097488888618049 2.219341770028103510981055
4.246231088449666124517989 -0.01301901935738358773164691 2.233212069092282980875552
4.246363516845421237633218 0.0132838761488930923171381 2.248054912104308300513367
4.245644665534380024496386 -0.01810436928874846820858302 2.249027456052154150256683
4.245644665534380024496386 0.04467212158653464243451836 2.249027456052154150256683
4.245295215445807457399496 -0.04440726479502514478792108 2.23227619608842342557864
4.242681061218696925152472 -0.04635235269071692060238732 2.216582073369602667867184
4.245427643841561682336305 -0.04805491210430823389998523 2.247119039100448745216454
4.245427643841561682336305 0.04805491210430823389998523 2.247119039100448745216454
4.243616934222555592270965 0.04440726479502513784902717 2.217517946373462223164097
4.243532340925492363226113 0.04805491210430822002219742 2.230452372433781693672472
4.242765654515759266018904 -0.01666666666666666296592325 2.203647647309282753269599
4.24100277999544506002394 0.00584562300747073441270496 2.201823823654641021363432
4.24100277999544506002394 0.03917895634080406641608363 2.201823823654641021363432
3.549812351338067273331944 -0.01612801538648541907483569 2.250456974302022850054072
3.54990617566903310375892 0.01701766928491562497205436 2.250632475611147320648797
3.54990617566903310375892 -0.04927370005788646312172574 2.250632475611147320648797
3.549675097592237538179916 -0.04981235133806770354336635 2.250363149971056575537887
3.549675097592237538179916 0.04981235133806770354336635 2.250363149971056575537887
3.54958127326127126366373 -0.01666666666666666296592325 2.250187648661932104943162
3.549444019515441528511701 0.01601686185114261501416522 2.250093824330965830426976
3.549444019515441528511701 0.04935019518447594788490562 2.250093824330965830426976
3.587484230434797360942412 -0.006344297944960263294089664 2.293828528379758147082157
3.577999322647761104576603 0.01464609214788933563844431 2.287657056759516027710788
3.587484230434797360942412 0.03563648224073891201957309 2.293828528379758147082157
3.571827851027519429294443 -0.03765705675951624975539289 2.277431187353182284738295
3.571827851027519429294443 0.0376570567595162636331807 2.277431187353181840649086
3.556171471620241053557265 0.004862374706364175520889592 2.261033846326605534216014
3.562342943240482728839424 -0.01612801538648540172760093 2.271259715732940165366927
3.556171471620241053557265 -0.03711840547933499545596447 2.261033846326605978305224
4.246916982817509733649786 0.01414800346214968931879419 2.267231020644639549743715
4.246569494005367317868149 -0.01484298108643534487571802 2.281726512918932137097272
4.245030630768111379325092 0.01176525461192485556838339 2.297481336795483386481465
4.24383925634299874474209 -0.01904941551689150192050448 2.29874066839774160442289
4.24383925634299963292051 0.0425799247407412165267182 2.29874066839774160442289
4.245484905411000653430165 -0.04565765121525170583405284 2.280641924324565472659287
4.245052841754372252580652 -0.04817631441976868988952276 2.265234589260157083145941
4.243946042173744714887107 -0.04748133679548303259787545 2.29639674820111672204348
4.243946042173744714887107 0.04748133679548303259787545 2.29639674820111716613269
4.246137430348738917018636 0.04565765121525170583405284 2.266319177854523747583926
4.244705352942229836799015 0.04748133679548303259787545 2.279730081534450114588708
4.246484919160881332800273 -0.01666666666666666990481716 2.251823685580231160230369
4.245705366692110516169123 0.01146019056866176555331549 2.25091184279011535807058
4.245705366692110516169123 0.0447935239019951053629498 2.25091184279011535807058
3.599287587619862893717482 -0.0148509921115865198976147 2.301620249657677419463653
3.599643793809931047178452 0.0177699288416094912379517 2.302171880745149223912449
3.599643793809931047178452 -0.0474719130647825240942872 2.302171880745149223912449
3.598633506550542371371648 -0.04928758761986268277510703 2.301264043467608821913473
3.598633506550542371371648 0.04928758761986268277510703 2.301264043467608821913473
3.598277300360474217910678 -0.01666666666666667337426411 2.300712412380137017464676
3.597623219291153695564844 0.01393367976775198094352426 2.300356206190068864003706
3.597623219291153695564844 0.04726701310108531728371162 2.300356206190068864003706
3.63490799907938288981768 0.009478400187473508611835094 2.328164534347687109061553
3.642453999539691622544524 0.02771973260018985307784334 2.333691067314448641667468
3.642453999539691622544524 -0.008762932225242839323620103 2.333691067314448641667468
3.615241997277736096805256 -0.02874100266814232779166716 2.313667331531686688350646
3.628825165738782665414419 -0.03490799907938300916665497 2.323656366753136470748586
3.606121331071378222077328 -0.04383300358875931446167584 2.307029168348918801711989
3.606121331071378222077328 0.04383300358875930058388803 2.307029168348918801711989
3.615241997277736096805256 0.0287410026681423104444324 2.313667331531686688350646
3.628825165738782665414419 0.03490799907938301610554888 2.323656366753136470748586
3.621324830618336765297727 -0.01049967025542597812148848 2.318175499126237326663613
3.615287662617598485326198 0.001574665746049658514998937 2.313712996871549520960798
3.60616699641124061059827 -0.01485099211158653377540251 2.307074833688780746143721
3.603083498205619683574241 0.01231534481050611945507356 2.304899172760700665207878
3.603083498205620571752661 -0.04201732903367916271974991 2.304899172760700665207878
3.661791842493395510160781 -0.03677696757601969790307805 2.348568810069414869445836
3.658042706142575539729478 -0.006306014103856722244345612 2.347137620138829650073831
3.661791842493395510160781 0.02416493936830624994493988 2.348568810069414869445836
3.656611516211990764446682 -0.04713762013882964729827307 2.344974676829818527323823
3.656611516211990320357472 0.04713762013882964035937917 2.344974676829818083234613
3.651431189930584686464954 0.03994935365963647733167363 2.34138054359022129702339
3.65286237986116990583696 0.009478400187473499938217714 2.343543486899232863862608
3.651431189930585574643374 -0.0209925532846894705163443 2.3413805435902217411126
4.243392715651440383339832 0.01013982339903757474985913 2.316747107747596956528469
4.241801225374998374206825 -0.01332280395192213424959693 2.32847842142307648316546
4.237188070942691453524276 0.004096495087308556562466499 2.343473156732370554777845