/*--------------------------------*- C++ -*----------------------------------*\
| =========                 |                                                 |
| \\      /  F ield         | OpenFOAM: The Open Source CFD Toolbox           |
|  \\    /   O peration     | Version:  v2012                                 |
|   \\  /    A nd           | Website:  www.openfoam.com                      |
|    \\/     M anipulation  |                                                 |
\*---------------------------------------------------------------------------*/
FoamFile
{
    version     2.0;
    format      ascii;
    class       volScalarField;
    location    "1.2";
    object      alpha.water;
}
// * * * * * * * * * * * * * * * * * * * * * * * * * * * * * * * * * * * * * //

dimensions      [0 0 0 0 0 0 0];


internalField   nonuniform List<scalar> 
96000
(
0
0
0
0
0
0
0
0
0
0
0
0
0
0
0
0
0
0
0
0
0
0
0
0
0
0
0
0
0
0
0
0
0
0
0
0
0
0
0
0
0
0
0
0
0
0
0
0
0
0
0
0
0
0
0
0
0
0
0
0
0
0
0
0
0
0
0
0
0
0
0
0
0
0
0
0
0
0
0
0
0
0
0
0
0
0
0
0
0
0
0
0
0
0
0
0
0
0
0
0
0
0
0
0
0
0
0
0
0
0
0
0
0
0
0
0
0
0
0
0
0
0
0
0
0
0
0
0
0
0
0
0
0
0
0
0
0
0
0
0
0
0
0
0
0
0
0
0
0
0
0
0
0
0
0
0
0
0
0
0
0
0
0
0
0
0
0
0
0
0
0
0
0
0
0
0
0
0
0
0
0
0
0
0
0
0
0
0
0
0
0
0
0
0
0
0
0
0
0
0
0
0
0
0
0
0
0
0
0
0
0
0
0
0
0
0
0
0
0
0
0
0
0
0
0
0
0
0
0
0
0
0
0
0
0
0
0
0
0
0
0
0
0
0
0
0
0
0
0
0
0
0
0
0
0
0
0
0
0
0
0
0
0
0
0
0
0
0
0
0
0
0
0
0
0
0
0
0
0
0
0
0
0
0
0
0
0
0
0
0
0
0
0
0
0
0
0
0
0
0
0
0
0
0
0
0
0
0
0
0
0
0
0
0
0
0
0
0
0
0
0
0
0
0
0
0
0
0
0
0
0
0
0
0
0
0
0
0
0
0
0
0
0
0
0
0
0
0
0
0
0
0
0
0
0
0
0
0
0
0
0
0
0
0
0
0
0
0
0
0
0
0
0
0
0
0
0
0
0
0
0
0
0
0
0
0
0
0
0
0
0
0
0
0
0
0
0
0
0
0
0
0
0
0
0
0
0
0
0
0
0
0
0
0
0
0
0
0
0
0
0
0
0
0
0
0
0
0
0
0
0
0
0
0
0
0
0
0
0
0
0
0
0
0
0
0
0
0
0
0
0
0
0
0
0
0
0
0
0
0
0
0
0
0
0
0
0
0
0
0
0
0
0
0
0
0
0
0
0
0
0
0
0
0
0
0
0
0
0
0
0
0
0
0
0
0
0
0
0
0
0
0
0
0
0
0
0
0
0
0
0
0
0
0
0
0
0
0
0
0
0
0
0
0
0
0
0
0
0
0
0
0
0
0
0
0
0
0
0
0
0
0
0
0
0
0
0
0
0
0
0
0
0
0
0
0
0
0
0
0
0
0
0
0
0
0
0
0
0
0
0
0
0
0
0
0
0
0
0
0
0
0
0
0
0
0
0
0
0
0
0
0
0
0
0
0
0
0
0
0
0
0
0
0
0
0
0
0
0
0
0
0
0
0
0
0
0
0
0
0
0
0
0
0
0
0
0
0
0
0
0
0
0
0
0
0
0
0
0
0
0
0
0
0
0
0
0
0
0
0
0
0
0
0
0
0
0
0
0
0
0
0
0
0
0
0
0
0
0
0
0
0
0
0
0
0
0
0
0
0
0
0
0
0
0
0
0
0
0
0
0
0
0
0
0
0
0
0
0
0
0
0
0
0
0
0
0
0
0
0
0
0
0
0
0
0
0
0
0
0
0
0
0
0
0
0
0
0
0
0
0
0
0
0
0
0
0
0
0
0
0
0
0
0
0
0
0
0
0
0
0
0
0
0
0
0
0
0
0
0
0
0
0
0
0
0
0
0
0
0
0
0
0
0
0
0
0
0
0
0
0
0
0
0
0
0
0
0
0
0
0
0
0
0
0
0
0
0
0
0
0
0
0
0
0
0
0
0
0
0
0
0
0
0
0
0
0
0
0
0
0
0
0
0
0
0
0
0
0
0
0
0
0
0
0
0
0
0
0
0
0
0
0
0
0
0
0
0
0
0
0
0
0
0
0
0
0
0
0
0
0
0
0
0
0
0
0
0
0
0
0
0
0
0
0
0
0
0
0
0
0
0
0
0
0
0
0
0
0
0
0
0
0
0
0
0
0
0
0
0
0
0
0
0
0
0
0
0
0
0
0
0
0
0
0
0
0
0
0
0
0
0
0
0
0
0
0
0
0
0
0
0
0
0
0
0
0
0
0
0
0
0
0
0
0
0
0
0
0
0
0
0
0
0
0
0
0
0
0
0
0
0
0
0
0
0
0
0
0
0
0
0
0
0
0
0
0
0
0
0
0
0
0
0
0
0
0
0
0
0
0
0
0
0
0
0
0
0
0
0
0
0
0
0
0
0
0
0
0
0
0
0
0
0
0
0
0
0
0
0
0
0
0
0
0
0
0
0
0
0
0
0
0
0
0
0
0
0
0
0
0
0
0
0
0
0
0
0
0
0
0
0
0
0
0
0
0
0
0
0
0
0
0
0
0
0
0
0
0
0
0
0
0
0
0
0
0
0
0
0
0
0
0
0
0
0
0
0
0
0
0
0
0
0
0
0
0
0
0
0
0
0
0
0
0
0
0
0
0
0
0
0
0
0
0
0
0
0
0
0
0
0
0
0
0
0
0
0
0
0
0
0
0
0
0
0
0
0
0
0
0
0
0
0
0
0
0
0
0
0
0
0
0
0
0
0
0
0
0
0
0
0
0
0
0
0
0
0
0
0
0
0
0
0
0
0
0
0
0
0
0
0
0
0
0
0
0
0
0
0
0
0
0
0
0
0
0
0
0
0
0
0
0
0
0
0
0
0
0
0
0
0
0
0
0
0
0
0
0
0
0
0
0
0
0
0
0
0
0
0
0
0
0
0
0
0
0
0
0
0
0
0
0
0
0
0
0
0
0
0
0
0
0
0
0
0
0
0
0
0
0
0
0
0
0
0
0
0
0
0
0
0
0
0
0
0
0
0
0
0
0
0
0
0
0
0
0
0
0
0
0
0
0
0
0
0
0
0
0
0
0
0
0
0
0
0
0
0
0
0
0
0
0
0
0
0
0
0
0
0
0
0
0
0
0
0
0
0
0
0
0
0
0
0
0
0
0
0
0
0
0
0
0
0
0
0
0
0
0
0
0
0
0
0
0
0
0
0
0
0
0
0
0
0
0
0
0
0
0
0
0
0
0
0
0
0
0
0
0
0
0
0
0
0
0
0
0
0
0
0
0
0
0
0
0
0
0
0
0
0
0
0
0
0
0
0
0
0
0
0
0
0
0
0
0
0
0
0
0
0
0
0
0
0
0
0
0
0
0
0
0
0
0
0
0
0
0
0
0
0
0
0
0
0
0
0
0
0
0
0
0
0
0
0
0
0
0
0
0
0
0
0
0
0
0
0
0
0
0
0
0
0
0
0
0
0
0
0
0
0
0
0
0
0
0
0
0
0
0
0
0
0
0
0
0
0
0
0
0
0
0
0
0
0
0
0
0
0
0
0
0
0
0
0
0
0
0
0
0
0
0
0
0
0
0
0
0
0
0
0
0
0
0
0
0
0
0
0
0
0
0
0
0
0
0
0
0
0
0
0
0
0
0
0
0
0
0
0
0
0
0
0
0
0
0
0
0
0
0
0
0
0
0
0
0
0
0
0
0
0
0
0
0
0
0
0
0
0
0
0
0
0
0
0
0
0
0
0
0
0
0
0
0
0
0
0
0
0
0
0
0
0
0
0
0
0
0
0
0
0
0
0
0
0
0
0
0
0
0
0
0
0
0
0
0
0
0
0
0
0
0
0
0
0
0
0
0
0
0
0
0
0
0
0
0
0
0
0
0
0
0
0
0
0
0
0
0
0
0
0
0
0
0
0
0
0
0
0
0
0
0
0
0
0
0
0
0
0
0
0
0
0
0
0
0
0
0
0
0
0
0
0
0
0
0
0
0
0
0
0
0
0
0
0
0
0
0
0
0
0
0
0
0
0
0
0
0
0
0
0
0
0
0
0
0
0
0
0
0
0
0
0
0
0
0
0
0
0
0
0
0
0
0
0
0
0
0
0
0
0
0
0
0
0
0
0
0
0
0
0
0
0
0
0
0
0
0
0
0
0
0
0
0
0
0
0
0
0
0
0
0
0
0
0
0
0
0
0
0
0
0
0
0
0
0
0
0
0
0
0
0
0
0
0
0
0
0
0
0
0
0
0
0
0
0
0
0
0
0
0
0
0
0
0
0
0
0
0
0
0
0
0
0
0
0
0
0
0
0
0
0
0
0
0
0
0
0
0
0
0
0
0
0
0
0
0
0
0
0
0
0
0
0
0
0
0
0
0
0
0
0
0
0
0
0
0
0
0
0
0
0
0
0
0
0
0
0
0
0
0
0
0
0
0
0
0
0
0
0
0
0
0
0
0
0
0
0
0
0
0
0
0
0
0
0
0
0
0
0
0
0
0
0
0
0
0
0
0
0
0
0
0
0
0
0
0
0
0
0
0
0
0
0
0
0
0
0
0
0
0
0
0
0
0
0
0
0
0
0
0
0
0
0
0
0
0
0
0
0
0
0
0
0
0
0
0
0
0
0
0
0
0
0
0
0
0
0
0
0
0
0
0
0
0
0
0
0
4.223349886909408811706009e-41
4.897911578367014976805515e-39
2.74289728276392496596325e-37
9.724536051300443962450208e-36
2.183475900468545508517648e-34
3.667316406157592486655698e-33
9.506958336997487292617162e-32
3.549639730977923877924238e-30
1.018834438636767023675035e-28
1.886270829524494755704375e-27
3.281554593674417820787995e-26
2.908651185066101461967326e-25
1.402133299767478616101156e-21
1.496820129677350890683214e-21
1.499284859845518274314478e-21
1.498485047981036391375929e-21
1.496301120753189523123958e-21
1.4924266495638915080273e-21
1.486839205012810881649966e-21
1.48104483901281653143077e-21
1.477503369079183179060938e-21
1.475707882204918283780277e-21
1.474210071531269069352132e-21
1.472037462158929274162947e-21
1.468133468756224350234148e-21
1.461306587862139492486468e-21
1.450536647453096081673627e-21
1.4350540181224401782941e-21
1.414189570331155009229294e-21
1.387274076564749757047027e-21
1.353665747987043613085176e-21
1.313011553474808240381318e-21
1.265814178767883879046943e-21
1.213697597359341646221827e-21
1.158217492575798635509786e-21
1.098375475516920748316395e-21
1.028820723694273783031468e-21
9.404995255791909828940918e-22
8.262630006158268624364245e-22
6.924382637547324721918436e-22
5.610232788271911910642533e-22
4.491985100707632623707397e-22
3.590499775387253342975966e-22
2.92050868878860591799102e-22
2.504609121916655309977842e-22
2.236182898607213861130839e-22
1.927769522952474879702186e-22
1.378142495523846591976171e-22
8.502896476566926138871132e-23
7.769656466669615527320661e-23
8.495670289623789842176025e-23
1.452587636495589236616091e-22
4.378473333837135879150049e-22
1.584922150594844488421468e-21
5.503803310458934037332145e-21
1.732031932998643053265743e-20
4.863507348739363169965558e-20
1.202626316615594057599261e-19
2.550881399098430679646174e-19
4.489782440753691842284461e-19
6.473225678177506287256585e-19
7.87229326593125043188457e-19
8.477945978864814407981231e-19
6.981621162513502441649991e-19
1.351641578303659027819907e-19
1.528742314328857963831538e-21
2.155339306078673938595131e-25
9.295903426635811033844621e-31
2.901558852938298496692331e-36
1.587503395569892539651363e-41
6.219380737136937220143712e-47
2.31958610947494490548935e-52
1.140300091558019833067362e-57
2.156394597888497164060669e-63
4.461466740235579094138572e-69
1.014069146179467760214386e-74
1.937259733652117218521353e-80
4.290900965830440932090087e-86
9.412137789597315392825757e-92
1.864763291774806059816138e-97
4.213407593466352634834474e-103
8.961292160554592671528458e-109
1.850796071257096638696406e-114
4.203139710338997347755929e-120
8.862824554009003111040153e-126
1.901270471441239394111144e-131
4.325571028665573278617512e-137
9.225554323401695204410506e-143
2.200982882840202196462289e-148
4.172589824220100765227139e-150
4.926871601969404251227262e-151
5.139595328203117346166146e-152
5.332735184583787346503511e-153
5.68497286462115943561991e-154
6.057564226431530308773253e-155
6.529423649011928860498574e-156
7.162180527769002236618062e-157
8.088486636294547141745292e-158
9.634344736484734937486049e-159
1.261681516627582425434063e-159
1.918323420977058643576531e-160
3.517956548157538555334465e-161
7.689771983118096304562885e-162
1.902285753827195581158926e-162
5.044032450055046398850724e-163
1.38025291072334636067727e-163
3.810968109636832848314454e-164
1.048120482959834610467417e-164
2.849975810789470781608063e-165
7.627722326217182983976403e-166
2.004011034517411139354712e-166
5.159854045216545123036025e-167
1.30066620021065813964656e-167
3.207893240955865560975607e-168
7.738320669708895589363515e-169
1.825437653529675137864808e-169
4.210659679567775358508335e-170
9.49725516605734460375815e-171
2.09476271138588629721641e-171
4.518550016696619011030599e-172
9.533220055423408003397018e-173
1.96748634023509304383433e-173
3.972600960957349735193937e-174
7.848583878461279233723166e-175
1.517484007704777222756704e-175
2.871687005079100468652916e-176
5.31978008274728242195379e-177
9.648427449723868827589735e-178
1.71351238951423201266881e-178
2.980204227549382012382819e-179
5.076817061303174397796494e-180
8.471896850874538803888209e-181
1.385060080081567735394783e-181
2.21875148202347965267722e-182
3.482989667180949045367462e-183
5.358566707412617326049714e-184
8.080635915719413674924352e-185
1.194506323655124641509153e-185
1.731095491153086573775931e-186
2.45971608707605636622555e-187
3.427047713024458727061197e-188
4.68235661286423434291619e-189
6.274138362350103959027509e-190
8.245618600176023047137225e-191
1.062929393686901771558311e-191
1.34408990532901380575329e-192
1.6673389973448998055205e-193
2.02916993954696824922635e-194
2.422910637158274058853069e-195
2.838603325370777837399546e-196
3.263191584332843943588467e-197
3.681048886725019164891926e-198
4.074841614158156306349547e-199
4.426672719949786654441266e-200
4.719407292690770632546276e-201
4.938046150199440521209552e-202
5.070995297120559771550738e-203
5.111082162719582487282274e-204
5.056194930848142529608544e-205
4.909465868559910415007735e-206
4.678976627136412862666547e-207
4.377023919544074121001695e-208
4.01903804163652906395389e-209
3.622285947544163023118498e-210
3.204509433700203988062222e-211
2.782645671235986592615959e-212
2.37175402210737766885668e-213
1.984235176502354880762851e-214
1.629383484048275701229322e-215
1.313268619232924785746005e-216
1.038905044680656510696029e-217
8.066416097458830951091788e-219
6.146909338320984442940829e-220
4.597183565436987803451205e-221
3.374206344333367002273299e-222
2.430415616038952681204652e-223
1.717913842313124700108606e-224
1.19155848794299012872431e-225
8.109650529714739348683004e-227
5.415514496890737962498352e-228
3.548170600060487048691245e-229
2.280715755303971587210516e-230
1.438178360144317110938702e-231
8.896118263178915706262352e-233
5.397642204429380053118364e-234
3.212115328390838097817716e-235
1.874681844685162274971473e-236
1.072945021991001111620476e-237
6.021475863210399371762662e-239
3.313326166545547658119927e-240
1.7873901415761810586814e-241
9.452018486303928874840425e-243
4.899297330037727764868629e-244
2.488850913764314716397728e-245
1.238994571498150093228771e-246
6.043557266060467824094574e-248
2.888108494904927980233885e-249
1.351993015758193563072342e-250
6.19891100905796501391365e-252
2.78338752811167270119762e-253
1.223725132159290379778814e-254
5.26717577578830640648181e-256
2.219138308973543668362695e-257
9.150175773569949138245568e-259
3.691779541834958267083022e-260
1.457212299386697914216653e-261
5.626090932879935625864596e-263
2.124222905185603655540024e-264
7.841727352663908437426386e-266
2.82974138407364200232138e-267
9.979439326234659675910135e-269
3.438640361337821621661735e-270
1.157393456275456497641099e-271
3.804317582367944948683359e-273
1.220834994403094111338178e-274
3.823838532630622092535046e-276
1.168630068938656178649786e-277
3.483825903016108389734719e-279
1.01274176226394463623614e-280
2.869846301004423747739582e-282
7.924727632924379836147431e-284
2.131655356084854171998931e-285
5.583291642887660886148705e-287
1.423410606660156215385716e-288
3.530645976942560984116189e-290
8.51669091194131976109522e-292
1.997006704129023141269601e-293
4.549557596883632350556963e-295
1.006510038661135490424316e-296
2.161190682882940563992358e-298
4.50140857782703986219423e-300
9.089189854238942085749429e-302
1.778074662535026151885061e-303
3.367705512450939307180512e-305
6.171234071472607182380354e-307
1.093301935961046372412814e-308
1.871091921606147262485542e-310
3.090810314424519627575145e-312
4.923611226733340707355115e-314
7.556413009285198251176214e-316
1.116152099635939369140538e-317
1.585160218117055412336103e-319
2.22329540628560944879456e-321
0
0
0
0
0
0
0
0
0
0
0
0
0
0
0
0
0
0
0
0
0
0
0
0
0
0
0
0
0
0
0
0
0
0
0
0
0
0
0
0
0
0
0
0
0
0
0
0
0
0
0
0
0
0
0
0
0
0
0
0
0
0
0
0
0
0
0
0
0
0
0
0
0
0
0
0
0
0
0
0
0
0
0
0
0
0
0
0
0
0
0
0
0
0
0
0
0
0
0
0
0
0
0
0
0
0
0
0
0
0
0
0
0
0
0
0
0
0
0
0
0
0
0
0
0
0
0
0
0
0
0
0
0
0
0
0
0
0
0
0
0
0
0
0
0
0
0
0
0
0
0
0
0
0
0
0
1.061799464905557623859331e-41
4.646684145847349722009897e-39
4.576330612231987096487138e-37
2.369377582026010178978816e-35
8.384554949546364277767797e-34
2.160462272869646282331512e-32
3.955366744968464459902706e-31
6.730782613479625445951497e-30
1.381132105370560825658577e-28
3.42856670318055203694963e-27
7.541546239194543181494706e-26
1.723947832312153981024775e-24
1.940626744595745192614723e-23
6.354706767378108516767796e-20
7.855858597647626501741363e-20
8.933624301189495548833354e-20
9.967523071925117050601286e-20
1.102335210673092629140667e-19
1.220548602695081958527414e-19
1.382050331406579950738254e-19
1.574321907654832732906382e-19
1.653534968830470288555322e-19
1.65534023702523699322368e-19
1.649547763844426416136029e-19
1.632225621739679746465346e-19
1.608293095205659207690314e-19
1.591166888535360295920967e-19
1.582177495188845530051516e-19
1.57511883032040093947302e-19
1.565290208720618097931554e-19
1.547734225792962928935768e-19
1.516787831285494551592463e-19
1.468470036952407941959133e-19
1.402317709363471065824568e-19
1.318546638357231630823013e-19
1.213504838650305187333797e-19
1.080663958121997833783954e-19
9.208535154563348924193035e-20
7.554682974339825741245035e-20
6.169831654451484526006145e-20
5.159234364316853750448522e-20
4.365941091471819879283235e-20
3.608087338025769294424415e-20
2.872909873033672480870228e-20
2.343630013541401527702243e-20
2.041027240692889952074092e-20
1.763145338306483108435351e-20
1.31447481077326411297246e-20
9.269878900835606393347167e-21
8.956599462611765797600672e-21
1.046120480590880896858073e-20
2.17154779373927861632556e-20
7.475171260850902726197669e-20
2.783675144813121088251213e-19
9.484833191707050343898496e-19
2.849190427104740520334822e-18
7.420380722493143587399174e-18
1.642102663893942045188433e-17
3.014553709213720882486456e-17
4.589361576283362385457698e-17
5.915897561947634261460442e-17
6.548486205056637432436435e-17
6.071107376493644855325778e-17
1.789880750269157265310804e-17
6.831393652792110241305258e-19
1.179832176549551529166831e-20
4.347066425939874666093359e-23
2.911746760624119650843301e-27
1.334003121027460932196814e-32
9.211952985514820973718335e-38
4.590577294277935908808618e-43
2.005492286437896361353537e-48
1.158669655262271229367799e-53
5.0733747942146781709684e-59
1.12067262088594599726701e-64
2.748752476301647873577449e-70
5.67220232584351506981231e-76
1.325471072701707585610908e-81
3.096352591942791341434979e-87
6.538618749014665107533189e-93
1.545792117911971700939096e-98
3.47691899359616547299869e-104
7.575757059595752343172818e-110
1.790115867052082098060762e-115
3.970753920600474095536436e-121
8.913054939525295629986802e-127
2.101871244371291911800296e-132
4.692173166373429123924716e-138
1.086402216023979240082861e-143
4.277983935337416248979391e-149
3.580080214857896587036185e-150
4.532139810891656988901775e-151
5.111629640090804484735323e-152
5.995891268805604668397756e-153
7.003918674848194826879743e-154
8.220396780745500438714548e-155
9.813412814366003178541757e-156
1.212997982688393128768179e-156
1.60889588818201439163069e-157
2.418946502056509997035392e-158
4.352130537209666797180085e-159
9.475066558329617962044289e-160
2.389417469870620537326648e-160
6.56923088579418361646525e-161
1.880582916088570323500287e-161
5.453932528086226147773368e-162
1.578103865946100589807518e-162
4.516978213319248122968311e-163
1.272590068580492109749753e-163
3.518591145395690675240356e-164
9.530328110024407563026555e-165
2.525996044435839376906714e-165
6.547308218175164962431407e-166
1.658978573491713324361443e-166
4.108555006425618010762005e-167
9.944496325916918381450614e-168
2.352511361254840099695957e-168
5.439626365816969802145663e-169
1.22954224750738266979802e-169
2.717150857689944194177806e-170
5.8714506546111590178747e-171
1.240817664556715629990479e-171
2.564916317028295800894206e-172
5.186971981078537812549727e-173
1.026367612363578782645058e-173
1.987524970440457635979794e-174
3.767160141814976046165408e-175
6.990000557779725349716334e-176
1.269901748933019461515506e-176
2.259223107013701694163316e-177
3.936484599262858877903077e-178
6.718630121946968666114267e-179
1.123403733727852348893573e-179
1.84048398251354942350955e-180
2.954780584558183973886149e-181
4.649104281488977469598342e-182
7.169946665016155354480605e-183
1.083963822417110633200412e-183
1.606621038177235826324038e-184
2.334841743355447557809897e-185
3.327287448496987114432614e-186
4.650007275209041034677933e-187
6.373632382528311019814658e-188
8.568961368409326568951859e-189
1.130089958526246197511911e-189
1.462094795307797067423765e-190
1.855871729363277692467295e-191
2.311323564508442346908436e-192
2.824506769352838216083206e-193
3.387041983294462092729177e-194
3.985840798436795084252518e-195
4.603248160087944211035307e-196
5.217661847763155225738837e-197
5.804635986979317655287874e-198
6.33841102110045539354292e-199
6.793747645666477076343893e-200
7.147887902344149323545592e-201
7.382433303866258540688877e-202
7.484925013617350520901408e-203
7.449937599567868651733835e-204
7.279553054050679786743457e-205
6.983157659972696144603525e-206
6.576589029170421093682836e-207
6.080740725272220063548089e-208
5.51979475453488242202674e-209
4.919288645250504886434686e-210
4.304229583317889723995398e-211
3.697444368828252035517706e-212
3.118306929406618828497653e-213
2.581924229630142303212896e-214
2.098797379910153649142628e-215
1.67491747828445876084687e-216
1.312212628577741157345137e-217
1.009237638714247617709867e-218
7.619914984142140580147657e-220
5.647572315551644693498894e-221
4.108794950636068171210152e-222
2.93421949642236698071147e-223
2.056738642426806330402913e-224
1.41499642312208201131085e-225
9.554347999718588278004692e-227
6.331321820584736719280618e-228
4.117293681920663701511187e-229
2.627412516121379144397114e-230
1.645192767795809285326107e-231
1.01076187341728381167933e-232
6.092480010254743449585955e-234
3.602636570949373838224654e-235
2.089748020744804461239482e-236
1.188991369094038223294184e-237
6.634940947084596144449158e-239
3.631025633972977467871588e-240
1.948559933703637230559945e-241
1.025289881728817709136372e-242
5.28910465641513822992109e-244
2.674682276671045546144583e-245
1.325764908185353179294818e-246
6.440395649368843531908224e-248
3.065881342983221517053976e-249
1.43000486031144392933495e-250
6.534301118998596782654723e-252
2.924675625366441283080362e-253
1.282058868471142033780888e-254
5.503283667924505337050733e-256
2.312855877420350202550765e-257
9.5151150215280121929823e-259
3.831256660768258367358728e-260
1.509558221859882527059436e-261
5.819105185666049849015158e-263
2.194184007571068659859628e-264
8.091135760693079015575746e-266
2.917230932252329379901869e-267
1.02815425964617714272646e-268
3.54135102175663523953829e-270
1.191778640199441524176806e-271
3.917655481502927367319846e-273
1.25760479969707455706459e-274
3.941192468843822667456866e-276
1.205450835117649713970615e-277
3.597303161466499738396535e-279
1.047060135360680440012994e-280
2.971586599920834916323268e-282
8.220076888446457341428535e-284
2.215519924360926238627435e-285
5.815966744754483998026765e-287
1.486418118140056573187519e-288
3.697012422299508539580528e-290
8.944598266385209783333393e-292
2.104120029233343462844998e-293
4.810271436329635859285126e-295
1.06816159119203561311846e-296
2.302714030195143590216389e-298
4.816524201734801881537944e-300
9.769220461853039161083312e-302
1.920197645276615702805629e-303
3.655138383186756349490526e-305
6.733314795537303365004665e-307
1.199495124304712218984616e-308
2.064762849441436069325236e-310
3.431470600169024047393627e-312
5.501001735437617658952224e-314
8.498497333368722577487441e-316
1.264000750088286556238832e-317
1.808280263778962351686242e-319
2.470328229206232720882844e-321
0
0
0
0
0
0
0
0
0
0
0
0
0
0
0
0
0
0
0
0
0
0
0
0
0
0
0
0
0
0
0
0
0
0
0
0
0
0
0
0
0
0
0
0
0
0
0
0
0
0
0
0
0
0
0
0
0
0
0
0
0
0
0
0
0
0
0
0
0
0
0
0
0
0
0
0
0
0
0
0
0
0
0
0
0
0
0
0
0
0
0
0
0
0
0
0
0
0
0
0
0
0
0
0
0
0
0
0
0
0
0
0
0
0
0
0
0
0
0
0
0
0
0
0
0
0
0
0
0
0
0
0
0
0
0
0
0
0
0
0
0
0
0
0
0
0
0
0
0
0
0
0
0
0
1.698884080527683243941098e-42
7.855060255504246585295382e-40
1.889374458096246249087042e-37
1.703706825468951199634399e-35
8.759053438625612128860561e-34
3.107636445926394560259277e-32
8.066753819479765838061408e-31
1.564043018034556805587941e-29
2.587667417525012958791766e-28
3.883996288730625479951313e-27
6.640236093330240159431028e-26
1.296012595600784898087353e-24
3.797105220876676143356415e-23
4.920031564148132939460386e-22
1.087829355194219869028069e-18
1.436515505403455654826464e-18
1.729377938418575469353997e-18
2.041269757881820734719064e-18
2.391603674996028949721706e-18
2.798592813777725888681223e-18
3.282957151888692303248918e-18
3.81736007761163765926651e-18
4.314708435397081589531885e-18
4.736992586451957729844682e-18
5.137950860025026312936322e-18
5.601994739419445273650026e-18
6.02916600146697842086646e-18
6.166661671670735387331437e-18
6.171428963219424093058459e-18
6.168557413572151553405076e-18
6.15713980158236929553248e-18
6.13154564183653614689957e-18
6.083783985039058072821334e-18
5.997529652070749040971276e-18
5.834430629681952846175559e-18
5.518279330739261008556893e-18
4.959943909013123872028472e-18
4.16868844074369413628672e-18
3.339652644684035416514322e-18
2.694721892051422511506357e-18
2.261567867538973639446591e-18
1.930894003518180304157528e-18
1.598710890220520447345632e-18
1.247660973427318712132814e-18
9.844295764078111699126062e-19
8.479432728826880973059658e-19
7.455078250292508252209561e-19
5.86771730866754742606398e-19
4.253659242684029433561033e-19
4.071169051374567288060591e-19
4.740172189775797859228641e-19
1.007705111642433458276322e-18
3.667228331927901678528249e-18
1.434817789000207700477292e-17
5.04688804145094726348789e-17
1.528141860886545726943848e-16
3.870445375243666270092449e-16
7.982403191388820702742503e-16
1.333609247511124839612798e-15
1.828924141485637870408345e-15
2.138741528795337454127262e-15
2.194592521295325748542719e-15
1.131160540697635576238351e-15
1.023825592336178531035371e-16
2.616779303430123357318794e-18
1.873715640952196505693134e-20
3.366668988215715636004555e-23
1.758239397584850979887944e-26
2.673315648595492808606533e-31
4.193348147546752132030122e-36
2.621787457205445918016925e-41
1.642123377153259168576371e-46
1.661554046630767388661147e-51
7.711416038566123794788625e-57
4.928347649622196435776904e-62
1.512662992644807979998289e-67
3.092616607819072850052503e-73
9.195481788056604205417788e-79
2.403943321480839849873957e-84
5.26826991708622332855284e-90
1.525904793295801156183541e-95
3.626338719214987323042628e-101
8.614449181560109602595177e-107
2.384489570087766418030338e-112
5.468524073898335502857429e-118
1.372402743296784488749238e-123
3.64708445942116562963739e-129
8.418730630740051790412952e-135
2.194705591924951409007662e-140
5.693450645226267299266852e-146
1.735399809808383120872929e-149
1.903272830193781395582329e-150
2.330162971932097997246966e-151
3.072551109567803213139352e-152
3.944598271379985367358493e-153
5.081700844573155351708483e-154
6.666119750656727316647321e-155
9.161553650708332570937523e-156
1.388291857568594341886102e-156
2.470762353620852326665561e-157
5.348410773201414140675626e-158
1.37030864387767970957671e-158
3.902432218429191903494969e-159
1.169756834872152150732664e-159
3.569035790143167329272471e-160
1.088373302717770066694386e-160
3.284662521449843037945936e-161
9.756298820824605256598622e-162
2.842880965275470632889876e-162
8.111004151276378365008366e-163
2.263249529794557257314639e-163
6.172197422619193588750035e-164
1.644510853545218249396729e-164
4.280050211530138281809769e-165
1.088072494194353097138143e-165
2.70198079988999367486195e-166
6.554886298935959631707053e-167
1.553694432635605938740775e-167
3.598761455698028935112595e-168
8.147108574479794305343293e-169
1.803004356468499409928363e-169
3.901347917176897940128443e-170
8.255429498504841835153468e-171
1.708653129615542795984392e-171
3.459701073060185232664963e-172
6.854463009933544746379014e-173
1.329035151459123384740832e-173
2.522340052950349483368886e-174
4.686501281927621877961401e-175
8.525960202828374813119298e-176
1.518995548073155564065429e-176
2.650666860324852257314382e-177
4.53110021632500704396973e-178
7.58864270650130914175988e-179
1.245363544975777059652643e-179
2.002890246614432318751309e-180
3.157200559876998487403721e-181
4.87847409863117393294653e-182
7.390149543428715126042372e-183
1.09763574772173302709501e-183
1.598620293598773799013289e-184
2.28327723346406685059971e-185
3.198455804806931248745791e-186
4.394713638071118033522292e-187
5.923351491437249287270726e-188
7.832265113754158052358918e-189
1.016072230186133373953422e-189
1.293336826571143388055451e-190
1.615397061491591667643316e-191
1.979960220879876969071955e-192
2.381608544642251076603775e-193
2.811554634234275675309266e-194
3.257682219709091766239808e-195
3.704922297107407713320194e-196
4.135977881886019602868622e-197
4.532365656547596802303679e-198
4.875696068076109425427467e-199
5.149072659999040695225342e-200
5.338464153000456196757039e-201
5.433894851487580398706661e-202
5.430313135940569180152156e-203
5.328033054150998557751131e-204
5.132695462019749077772201e-205
4.854754875148206452852473e-206
4.508556716830131074383476e-207
4.111117794794941693499461e-208
3.680753431245780961759078e-209
3.235703834978752586227556e-210
2.792900032773164415662882e-211
2.366979575304832501230974e-212
1.969620562008531112274394e-213
1.609216807665842445682085e-214
1.290874476589638680187267e-215
1.016677000065888051448052e-216
7.861440120143180648830905e-218
5.968022711112876244485865e-219
4.447906981091491901986489e-220
3.254347510341713815187603e-221
2.337436240860626964685255e-222
1.648034596518552435613818e-223
1.140578350349126008538665e-224
7.748116702690252426116599e-226
5.166040577963389089648714e-227
3.380546380726954274788261e-228
2.170993777517573612033673e-229
1.368189860071965360171877e-230
8.461007853284587613015615e-232
5.134000327659318634852529e-233
3.056441769993593256053465e-234
1.78512815035067549066902e-235
1.022775910958040313625136e-236
5.747941343883754778939807e-238
3.16829735891733899775978e-239
1.712696439785480928532904e-240
9.078890839221103501973494e-242
4.718871770954185222601377e-243
2.404636762913177375686852e-244
1.201206009815629244249981e-245
5.881536264580681965652227e-247
2.82238076625794692616553e-248
1.3271985073457773724303e-249
6.114952686682731253427049e-251
2.760108909547323087520235e-252
1.220314029636489340341381e-253
5.284001510428003339223759e-255
2.240428533806528852323716e-256
9.300452762027024488379201e-258
3.779261333335289070375018e-259
1.503008656652654421482232e-260
5.849064554108733870554178e-262
2.226880955989268259392764e-263
8.292872910796907382901372e-265
3.020080686312064357372154e-266
1.075330323378533920864182e-267
3.742616589083369846383018e-269
1.272960689774646592530833e-270
4.23011904520454285771427e-272
1.373014986566770697776121e-273
4.351764566015756439403178e-275
1.346480941978566464711243e-276
4.065853226681851718431359e-278
1.197805253137271354091298e-279
3.441630340068490042003578e-281
9.641396742475166095029117e-283
2.632455645091612726049925e-284
7.002743706421341597787513e-286
1.814240136981294775663328e-287
4.575790780450077973083478e-289
1.123051210229208040255387e-290
2.681039980512970783558324e-292
6.222662369473437895643942e-294
1.403483233490867060242364e-295
3.074498858955643760212081e-297
6.537987966132109925440831e-299
1.348872114105757726222356e-300
2.698331154601306943268411e-302
5.230511653764287065034616e-304
9.818130102156869959549926e-306
1.783378946131179643082361e-307
3.132313599923814932699794e-309
5.315577815314963389635551e-311
8.708330717809932196218192e-313
1.376039127771609166659219e-314
2.095196585366684835177834e-316
3.070949012886060907241973e-318
4.331473517090208452795979e-320
5.780568056342584566865855e-322
0
0
0
0
0
0
0
0
0
0
0
0
0
0
0
0
0
0
0
0
0
0
0
0
0
0
0
0
0
0
0
0
0
0
0
0
0
0
0
0
0
0
0
0
0
0
0
0
0
0
0
0
0
0
0
0
0
0
0
0
0
0
0
0
0
0
0
0
0
0
0
0
0
0
0
0
0
0
0
0
0
0
0
0
0
0
0
0
0
0
0
0
0
0
0
0
0
0
0
0
0
0
0
0
0
0
0
0
0
0
0
0
0
0
0
0
0
0
0
0
0
0
0
0
0
0
0
0
0
0
0
0
0
0
0
0
0
0
0
0
0
0
0
0
0
0
0
0
0
0
0
0
0
1.194648387998507092670777e-40
3.069668807141641391691029e-38
4.782587847301276121757453e-36
3.898635380740991722543429e-34
1.946452365687883818668219e-32
6.710868727150580259325447e-31
1.701159353609685952860182e-29
3.337768571387064675206707e-28
5.621866643410844976929298e-27
8.302384816342229752896262e-26
1.165712675265067541000961e-24
1.700727876443821901422005e-23
4.206118873989805475384314e-22
5.490476426261656416003379e-21
2.015780827253753125168991e-17
2.643127301660018009191601e-17
3.176376228086024397839256e-17
3.7584989442264499513377e-17
4.430990792964382642807361e-17
5.222498088679065686083453e-17
6.152586083638849713772991e-17
7.194628646430515206661936e-17
8.289565132214305058670575e-17
9.485480397566486714442205e-17
1.10036102250048653974874e-16
1.286037694600074745879681e-16
1.4172188464973759258853e-16
1.452383421110862459699963e-16
1.4594548766570435887374e-16
1.464947501092584657082597e-16
1.473282296793287007214117e-16
1.480505742429999094776407e-16