# geometry NO_DATA 684
#  x  y  z
2.683907317134489822763044 0.01551869906435390106258509 1.53218536573102070974528
2.691953658567245444288574 0.03275934953217694151073047 1.5402317071637758871816
2.691953658567245444288574 -0.00172195140346913201298551 1.5402317071637758871816
2.65738983604996903409301 -0.04113219674003768672188031 1.548522032790005997782146
2.65591186883997565360005 -0.01075479782669207413914325 1.54704406558001239524458
2.65738983604996947818222 0.0196226010866537917132213 1.548522032790005997782146
2.683021764746806425705472 -0.01763969079256023919644036 1.532447780945649373762762
2.69155461824250830105143 -0.03390731713448971035296253 1.540406650640194996526589
2.675879406722888376179981 -0.03077643923808305939648911 1.539590138969566979199044
2.670701527971911293235507 -0.04704406558001253402245823 1.548122992465268854545002
2.675879406722888820269191 0.03077643923808280612686161 1.539590138969566979199044
2.670701527971911293235507 0.04704406558001228422227769 1.548122992465268854545002
2.683021764746806425705472 0.01763969079256021837975865 1.532447780945649151718158
2.69155461824250830105143 0.03390731713448970341406863 1.540406650640194996526589
2.675374463638787947417086 -0.0003990403247372052535080211 1.524226496036474864936849
2.674887951575841249507448 0.0005739838011563536297743315 1.524313967774684641653948
2.667745593551924088160376 0.01371073224667893920847295 1.53145632579860224709023
2.661089747590952736544523 -0.000399040324737441609581623 1.538511212084310297854017
2.734047800707288367050296 0.01523773191875622129431989 1.531904398585423265899408
2.742023900353644183525148 0.03261886595937809468770396 1.539880498231778860329655
2.742023900353644183525148 -0.002143402121865666844213738 1.539880498231778860329655
2.732829591318576056835354 -0.01795511784177824740615925 1.532115123944621126739207
2.741449916552487486853806 -0.03404780070728853635930733 1.540020981804577360207986
2.724139024298265709944644 -0.03390731713448970341406863 1.5402317071637758871816
2.724139024298265709944644 0.03390731713448972423075034 1.5402317071637758871816
2.732829591318576056835354 0.01795511784177827516173487 1.532115123944621348783812
2.741449916552487486853806 0.03404780070728856411488294 1.540020981804577804297196
2.725427475473376937031844 -0.0005739838011563625202321459 1.523998540725466810386024
2.724783249885821323488244 0.0007144673739552329788660145 1.524068782511866171347492
2.716092682865510532508324 0.01551869906435392187926681 1.53218536573102070974528
2.708046341432755799161214 0.03275934953217696232741218 1.5402317071637758871816
2.708046341432755799161214 -0.001721951403469133747708986 1.5402317071637758871816
2.784064468143572668168417 0.01520439704618762807863952 1.531871063712854530436402
2.792032234071786689355577 0.03260219852309381716182202 1.539838829641067885489747
2.792032234071786689355577 -0.002193404430718584856990772 1.539838829641067885489747
2.782627199677520479781379 -0.01811226885086139257174942 1.531896064867281026522505
2.791317766697830826672089 -0.0340644681435728624574466 1.539855497077352142198947
2.773928298939067449424556 -0.03404780070728853635930733 1.539880498231778860329655
2.773928298939067005335346 0.03404780070728857105377685 1.539880498231778860329655
2.782627199677519591602959 0.01811226885086144114400675 1.531896064867281026522505
2.791317766697830826672089 0.03406446814357287633523441 1.539855497077352142198947
2.775373901123261433099287 -0.0007144673739551797445393455 1.523911631502782970670751
2.774651100031164219217317 0.0007311348102395679674631035 1.523919965220925210047653
2.765952199292711188860494 0.01523773191875622996793727 1.531904398585423265899408
2.757976099646355372385642 0.03261886595937810162659787 1.539880498231778860329655
2.757976099646355372385642 -0.002143402121865661206362441 1.539880498231778860329655
2.833976585576306383984502 0.01538016218071931208444258 1.532046828847385855354446
2.841988292788152570267357 0.03269008109035966003208529 1.540058536059232707771116
2.841988292788153458445777 -0.001929756728921008324464936 1.540058536059232707771116
2.832558257239460974830081 -0.01804105371987987579962542 1.531915004996487361665913
2.841257157977914005186904 -0.03397658557630701264828943 1.539970653491966823267489
2.823903297784640997747374 -0.03406446814357286939634051 1.539838829641067885489747
2.823903297784640997747374 0.03406446814357284164076489 1.539838829641067663445142
2.832558257239460530740871 0.01804105371987982375792114 1.531915004996486917576703
2.841257157977914005186904 0.03397658557630699183160772 1.539970653491966601222884
2.825277684837853797716889 -0.0007311348102395544149359474 1.52399118035190639375287
2.824590491311246953642922 0.0006432522429736269769032231 1.523947239068273562523359
2.815935531856426976560215 0.01520439704618757950638219 1.531871063712854308391798
2.807967765928213399462265 0.03260219852309377552845859 1.539838829641067663445142
2.807967765928213399462265 -0.002193404430718593096927282 1.539838829641067663445142
2.883858796770550458887783 0.01561573979223266489535504 1.53228240645889934867796
2.89192939838527518503497 0.03280786989611632342711545 1.540353008073624296869752
2.89192939838527518503497 -0.001576390311650972386042779 1.540353008073624518914357
2.882631186687481417152412 -0.01783538234685733483986247 1.532105723250264617263383
2.891286146142301394235119 -0.03385879677055032843657756 1.540235219267867883274903
2.874035121635539091755618 -0.03397658557630701264828943 1.540058536059232929815721
2.874035121635539091755618 0.03397658557630699183160772 1.540058536059232707771116
2.882631186687481417152412 0.0178353823468572897370521 1.532105723250264617263383
2.891286146142301394235119 0.03385879677055030068100194 1.540235219267867439185693
2.875203837315729593626656 -0.0006432522429736986426668244 1.52415291044129608266644
2.874619479475634342691137 0.000525463437216944066233959 1.524094016038417764846713
2.866023414423692461383553 0.01538016218071931381916606 1.532046828847386077399051
2.858011707211846275100697 0.03269008109035966003208529 1.540058536059232707771116
2.858011707211846275100697 -0.001929756728921008107624502 1.540058536059232707771116
2.933751141597812139849566 0.0158316729285350073219707 1.532498028199788642211843
2.94187557079890638078723 0.032916147859680743026356 1.540622768796295449789113
2.94187557079890638078723 -0.001252802002610715588828971 1.540622768796295449789113
2.932754431348516988009578 -0.0176099383683627278007755 1.532336623084038507158766
2.941350496400458869317163 -0.0337511415978123952008616 1.540515191266914607481908
2.92421219388294417740326 -0.03385879677055032843657756 1.540353397112394384649292
2.92421219388294417740326 0.03385879677055031455878975 1.540353397112394162604687
2.932754431348516988009578 0.01760993836836270698409379 1.532336623084038507158766
2.941350496400458869317163 0.03375114159781238132307379 1.540515191266914385437303
2.925155076545870258541981 -0.0005254634372170068415397459 1.524319460016912763933306
2.924683440695022174082851 0.0004178082644790491570647994 1.524265632430543693232039
2.916141203229449363476533 0.01561573979223267877314285 1.53228240645889979276717
2.908070601614724637329346 0.03280786989611634424379716 1.540353008073624518914357
2.908070601614724637329346 -0.001576390311650977373372773 1.540353008073624518914357
2.977786268510277167820277 0.00491660616470684756762477 1.527130337654428959837105
2.980080588878668557129004 -0.000327965427924181110886509 1.529752623450744808408786
2.976507847305710274810053 -0.006817517717992547729433106 1.538249939498040008700741
2.970640785364360603182377 -0.02840079054936606867132198 1.544124969749020026554831
2.970640785364360603182377 0.01476575511338098015134968 1.544124969749020026554831
2.977414004490710031092249 -0.005661134203841537357315694 1.527086039062786060327426
2.968916688443414386711083 -0.02199983544258402728965862 1.535165858241015701679544
2.965716210890023241120161 -0.03824993949804019605087646 1.543707472879954467614994
2.968916688443414386711083 0.02199983544258400994242386 1.535165858241015479634939
2.965716210890023241120161 0.03824993949804018217308865 1.543707472879954245570389
2.977414004490710031092249 0.005661134203841511336463554 1.527086039062786060327426
2.975119684122318197694312 -0.0004165626112105097087964789 1.52446375326647043380035
2.974747420102751505055494 0.0003279654279241544937231745 1.524419454674827534290671
2.966250104055455416585119 0.01583167292853501079141765 1.532499273853057175642789
2.958125052027727797110401 0.03291490220641217490094022 1.540623391622929716504586
2.958125052027727353021191 -0.001251556349342145295008843 1.540623391622929938549191
2.584358712828306536835044 0.01461590767672066651372553 1.581282574343387370419123
2.592179356414153090781838 0.03230795383836031209323636 1.589103217929234368455127
2.592179356414153090781838 -0.003076138484919015928659158 1.589103217929234368455127
2.589687921453625918388752 -0.002374494255648735251129633 1.592062415709274869612955
2.581750337162900699183865 0.0150836704962341895674971 1.584124831418549650408067
2.589687921453625918388752 0.03254183524811708055901605 1.592062415709274869612955
2.583400458048822567747038 -0.0179890895163044850502132 1.58237507855384973431967
2.591882313059488129880492 -0.03435871282830631895377493 1.589831554069542463025755
2.582492019258728177533158 -0.01775520810654772699277437 1.583283517343944346578155
2.590182376184177570621614 -0.03412483141854955742688915 1.591765372354609908711609
2.582492019258728177533158 0.01775520810654779638171341 1.583283517343944346578155
2.590182376184177570621614 0.03412483141854959212135867 1.591765372354609908711609
2.583400458048822123657828 0.01798908951630455443915224 1.58237507855384973431967
2.591882313059488129880492 0.03435871282830635364824445 1.589831554069542463025755
2.57587685781764053061238 -0.0002970433546648005478443832 1.573826098827694419668433
2.57521564639282152242572 0.001025379494973050267803139 1.574190266897848688998351
2.574307207602727132211839 0.0007914980852162932945664808 1.575098705687943523301442
2.574059980237451306095409 -0.000297043354664800005743297 1.575642976407883866230009
2.647044065580012706107027 -0.01075479782669217648782833 1.555911868839974676603788
2.648522032790006086599988 0.01962260108665373620207006 1.557389836049968723230563
2.648522032790006530689197 -0.0411321967400378463164401 1.557389836049968723230563
2.638650630214213865798456 -0.03140277840831894040629635 1.574939897967533974920684
2.647496653295033475217224 -0.04704406558001257565582165 1.570075188801674404004416
2.623461930757540194747435 -0.03435871282830636752603226 1.589103217929233924365917
2.623461930757540194747435 0.03435871282830639528160788 1.589103217929234368455127
2.638650630214213421709246 0.03140277840831872530058533 1.574939897967534196965289
2.647496653295033031128014 0.04704406558001234667232282 1.570075188801675070138231
2.638198042499192652599049 -0.001025379494973268192439808 1.560776578005834469564661
2.630829986628366867762452 0.01371073224667902767937022 1.56711925438168742097389
2.61564128717169364080064 0.01461590767672065263593772 1.581282574343387370419123
2.607820643585846642764636 0.03230795383836035372659978 1.589103217929234368455127
2.607820643585846642764636 -0.003076138484919064934597355 1.589103217929234368455127
2.6573898360499685900038 -0.04704406558001262422807898 1.554433901629980852021617
2.654433901629981384928669 -0.04704406558001262422807898 1.557389836049968501185958
2.654433901629981384928669 0.04704406558001239524458015 1.557389836049968945275168
2.65738983604996903409301 0.04704406558001239524458015 1.554433901629981296110827
2.65738983604996903409301 -0.04113219674003779080528886 1.551477967209993424901882
2.65591186883997520951084 -0.01075479782669206893497282 1.552955934419987471528657
2.65738983604996903409301 0.01962260108665389579662985 1.551477967209993646946486
2.652955934419987560346499 -0.01075479782669217648782833 1.555911868839974676603788
2.651477967209993735764328 0.0196226010866537917132213 1.557389836049968723230563
2.651477967209993735764328 -0.04113219674003790182759133 1.557389836049968501185958
2.988260561509772372801308 0.006812210313787710191935076 1.57347887698045463267249
2.994130280754886186400654 0.02840610515689378015591338 1.579348596225568224227231
2.994130280754886186400654 -0.01478168452931837885400146 1.579348596225568224227231
2.982388188562556496918887 -0.0382605615097727363993485 1.567609157735341263162354
2.982388188562556496918887 0.03826056150977275027713631 1.567609157735340819073144
2.976518469317442683319541 -0.01666666666666664908813544 1.561739438490227449563008
2.97064609637022680743712 -0.01855695620821978808479003 1.555869719245113858008267
2.97064609637022680743712 0.01477637712511354131650343 1.555869719245113635963662
3.034479077261380552954506 0.01437517881057151156176666 1.581041845477238361183936
3.042239538630689299480991 0.03218758940528575196449168 1.588802306846547551799631
3.042239538630689743570201 -0.003437231784142704554829706 1.588802306846547773844236
3.026515363032697525369485 -0.02273963877115366127856788 1.575369619104650675822654
3.037312310454250763314121 -0.03447907726138090683809523 1.585020822598155909588513
3.017609157735340552619618 -0.03826056150977275027713631 1.579348596225568224227231
3.017609157735340552619618 0.0382605615097727363993485 1.579348596225568224227231
3.026515363032697525369485 0.02273963877115362311465141 1.575369619104650453778049
3.037312310454249875135702 0.03447907726138088602141352 1.585020822598155909588513
3.02368212983982731500987 -0.004927228176439439957801092 1.571390641983732905373472
3.020645643787583711770139 0.001145743928047536237119219 1.569499899859536862223308
3.011739438490226739020272 0.006812210313787675497465557 1.57347887698045463267249
3.005869719245112925420926 0.02840610515689376280867862 1.579348596225568224227231
3.005869719245112925420926 -0.01478168452931839446651274 1.579348596225568224227231
3.083864152615389375711175 0.01560811910477042860345698 1.582273240270329228707169
3.091932076307694732264508 0.03280560505349306571476475 1.590342709463742787434626
3.091932076307694732264508 -0.001589366843952162971359554 1.590342709463742787434626
3.081883336188897537510911 -0.01834322987677017985364003 1.581352516906841865207412
3.090789541486254510260778 -0.03386415261538930354667798 1.589729448423250701694087
3.073284593214536286609473 -0.03447907726138087214362571 1.588805515953155556019283
3.073284593214535398431053 0.03447907726138083051026229 1.588805515953155111930073
3.081883336188897537510911 0.01834322987677008270912538 1.581352516906841643162807
3.090789541486254510260778 0.03386415261538926191331456 1.589729448423250701694087
3.074957947318032402961308 -0.001145743928047588929344802 1.573896308753920170175888
3.074119665712981230853984 0.0005308192820558737482633527 1.573588846430924670372065
3.065520922738619091774126 0.01437517881057148727563799 1.581041845477238361183936
3.057760461369309012980011 0.03218758940528568951444655 1.588802306846547551799631
3.057760461369309012980011 -0.003437231784142670727721924 1.588802306846547773844236
3.126835093101281604077712 0.003020131972334029815674405 1.576185038871050991815537
3.128182645529890670843542 -0.0003250271151158251603519034 1.577857618414775675574901
3.122729472808737583022776 -0.01058131832719166887102347 1.586353465305667231888265
3.115928747658975428436179 -0.03026811696619236685679155 1.593176732652833438308448
3.115928747658974984346969 0.00910548031180902391057419 1.593176732652833660353053
3.12641026179334113876962 -0.003869794588215558911459269 1.576085234678226143500979
3.117914414902450026545466 -0.02021143413976639324758366 1.584051807788169341506546
3.112886073489237404032792 -0.03635346530566735401279743 1.592647458871885746134467
3.117914414902450026545466 0.02021143413976640365592452 1.584051807788169563551151
3.112886073489237404032792 0.03635346530566736789058524 1.592647458871885746134467
3.12641026179334113876962 0.003869794588215566284034042 1.576085234678226143500979
3.12506270936473207200379 -0.00052463550076570274281057 1.574412655134501237697009
3.124637878056791606695697 0.0003250271151158331834479798 1.574312850941676389382451
3.116142031165900494471543 0.0156081191047704771757143 1.582279424051619587388018
3.108071015582949847555483 0.03279942127220284581179399 1.590345801354387855752748
3.108071015582949847555483 -0.00158318306266189666453581 1.590345801354387855752748
2.587488107074107368532623 -0.005014271511070894637995821 1.642502378585178668402023
2.579990485659286125752487 0.0133238189926193906220675 1.635004757170357203577282
2.587488107074107368532623 0.03166190949630969669881253 1.642502378585178668402023
2.589687921453625918388752 -0.03412483141854960599914648 1.623812752872175746432504
2.581310374286997166848323 -0.01912958858890657573570415 1.63298179812402111110714
2.588368032825915321382126 -0.03500475717035697598156219 1.641710880499962499357025
2.581310374286996722759113 0.01912958858890653063289378 1.63298179812402111110714
2.588368032825915321382126 0.03500475717035694822598657 1.641710880499962499357025
2.589687921453625918388752 0.03412483141854957824357086 1.623812752872175746432504
2.589687921453625918388752 -0.002374494255648781654982615 1.607937584290725308022729
2.581750337162900699183865 0.01508367049623413232162239 1.615875168581450527227616
2.589687921453625918388752 0.03254183524811706668122824 1.607937584290725308022729
2.573372789996271947643436 0.001671423837023593020681411 1.625044213833295891902253
2.572932827120368415307894 -0.0007914980852162902588003979 1.626275674794415593282793
3.136383505028375928702644 0.0105663232765813158708923 1.627232989943247831732265
3.143191752514188141987006 0.03028316163829065932322493 1.634041237429059822972022
3.143191752514188141987006 -0.009150515085128034520334239 1.634041237429059822972022
3.129567760017258670757201 -0.03638350502837601335714979 1.620424742457435840492508
3.129567760017258670757201 0.03638350502837602029604369 1.620424742457436062537113
3.122759512531446901562049 -0.0166666666666666594964763 1.613616494971624071297356
3.115943767520329643616606 -0.02419781329881565828943124 1.606808247485812302102204
3.115943767520330087705815 0.009135520034517678050756118 1.606808247485812302102204
3.184070799249406835684795 0.0151917348345207356419273 1.63185840150118766089804
3.192035399624703728704844 0.03259586741726037267818938 1.63982300187648455391809
3.192035399624703728704844 -0.002212397748218891853355661 1.63982300187648455391809
3.179126808748805821380756 -0.02045430427778226201152023 1.628389342832733399646372
3.188985227929660659640376 -0.03407079924940630000218533 1.637510296097515194446714
3.170424742457436551035244 -0.03638350502837595784599856 1.634041237429060267061232
3.170424742457436551035244 0.03638350502837595784599856 1.634041237429060267061232
3.179126808748805821380756 0.02045430427778225160317938 1.628389342832733177601767
3.188985227929660659640376 0.03407079924940629306329143 1.6375102960975145283129
3.174212380068551997425175 -0.003050171695042635383599006 1.622737448236406310186908
3.172318561262994052185604 0.0007374659160729569399445049 1.621581095346921408406615
3.163616494971624337750882 0.01056632327658130546255144 1.62723298994324849786608
3.15680824748581212446652 0.03028316163829059687317979 1.634041237429060267061232
3.15680824748581212446652 -0.00915051508512798247862996 1.634041237429060267061232
3.226905373037360025278986 0.00310763350811669525688985 1.626202260470757110510931
3.22828341164976695409905 -0.0003515562833013857616318298 1.627931855366465896395312
3.222881933682899990856185 -0.01045139965043314668469154 1.636440966841450128654856
3.216102417103626098793256 -0.03022569982521652875995244 1.643220483420725130940809
3.216102417103624766525627 0.00932290052435024926835716 1.643220483420725130940809
3.226360861937672019905676 -0.004196655707491063654057672 1.626009305654371184246543
3.217851750462688897869157 -0.02051176609085636481921711 1.633780951213282373046809
3.212994783595508607731972 -0.03644096684145006759258933 1.642483017504652309526136
3.217851750462688897869157 0.02051176609085633012474759 1.633780951213282151002204
3.212994783595508607731972 0.03644096684145004677590762 1.642483017504652309526136
3.226360861937672019905676 0.004196655707491019418609035 1.626009305654371184246543
3.224982823325265091085612 -0.0007374659160729829607966446 1.624279710758662176317557
3.224438312225577973890722 0.0003515562833013420682842787 1.624086755942276250053169
3.215929200750593963675783 0.01519173483452073217248035 1.631858401501187438853435
3.207964600375297070655733 0.03259586741726036573929548 1.63982300187648410982888
3.207964600375297070655733 -0.002212397748218894455440875 1.63982300187648455391809
2.589637496851837639155747 -0.002435003777795238626147079 1.692072500629632658686319
2.581709997481469898161777 0.0150433308148031560924629 1.684145001259264917692349
2.589637496851837639155747 0.03252166540740156208677547 1.692072500629632658686319
2.587488107074107368532623 -0.03500475717035697598156219 1.672492864244464527700984
2.580420363614831735787902 -0.01914975842962204216624045 1.681232031540763616206391
2.588777740940745530906497 -0.03414500125926507589912973 1.690401076792609202925632
2.580420363614831735787902 0.01914975842962201441066483 1.681232031540763838250996
2.588777740940745530906497 0.03414500125926506202134192 1.690401076792609202925632
2.587488107074107368532623 0.03500475717035695516488047 1.672492864244464749745589
2.587488107074107368532623 -0.005014271511070889433825393 1.657497621414821598051503
2.579990485659286125752487 0.01332381899261940103040835 1.664995242829643062876244
2.587488107074107812621833 0.03166190949630970363770643 1.657497621414821598051503
2.572922742200010493007767 0.0008116679259317123454678389 1.673734410125942151381651
2.573352620155556103043182 -0.001671423837023647881311339 1.674975956007419997106922
3.236440966841450439517303 0.01045139965043322301252449 1.677118066317100364415182
3.243220483420725219758651 0.03022569982521661202667929 1.683897582896375144656531
3.243220483420725219758651 -0.009322900524350162532183361 1.683897582896374922611926
3.229661450262175215186744 -0.03644096684145006065369543 1.670338549737825140084624
3.229661450262175215186744 0.03644096684145005371480153 1.670338549737825362129229
3.222881933682899990856185 -0.01666666666666667684371106 1.66355903315855013779867
3.216102417103625654704047 -0.02401043280898308013293629 1.656779516579275579601926
3.216102417103625654704047 0.009322900524350256207251064 1.656779516579275579601926
3.283966326660671342096975 0.01617869897740243853578868 1.682456356161363686396726
3.291983163330336026319856 0.03347835897140665623039624 1.690862202313733408942653
3.291983163330336026319856 -0.001120961016601767883116292 1.690862202313733408942653
3.280772673161744368286463 -0.02040729350212085527194183 1.68013967983440704045961
3.290659823249136639589096 -0.03396632666067088412997776 1.689782846077166222897858
3.272122843164742000965362 -0.03644096684144997044807468 1.685681876323292360808637
3.272122843164742000965362 0.03644096684144995657028687 1.685681876323292360808637
3.280772673161744368286463 0.02040729350212083098581317 1.6801396798344065963704
3.290659823249136195499887 0.03396632666067087719108386 1.689782846077166222897858
3.274079176573279070794342 -0.003107633508116651455122081 1.672813189918604059869267
3.272208863155551483714589 0.000632993327337526322587391 1.671575869828214599976945
3.263559033158549560482697 0.01045139965043321433890711 1.677118066317099920325973
3.256779516579275224330559 0.03022569982521652182105854 1.683897582896374922611926
3.256779516579275224330559 -0.009322900524350081000179991 1.683897582896374922611926
3.302510737724799305681245 -0.0458132288969150536228625 1.698323966621714031788315
3.303769418929829004838439 -0.01583196232015370366608131 1.696647933243428107985551
3.302510737724799305681245 0.01414930425660772261853282 1.69832396662171380974371
3.30209338555154285899107 -0.04664793324342808578109043 1.69807998277708183110235
3.30209338555154285899107 0.0466479332434280302699392 1.69807998277708183110235
3.301676033378286412300895 0.04615996555416380237035767 1.697835998932449630416386
3.303352066756572558148264 0.01617869897740237261629659 1.696403949398796129344191
3.301676033378286412300895 -0.01380256759935897560576112 1.697835998932449630416386
2.592402509876316152315212 0.004415059257898349201476584 1.712012549381581871799085
2.584805019752633103991002 -0.01666666666666665602702935 1.719610039505265364212505
2.592402509876316152315212 -0.0289182740754349854039873 1.71201254938158209384369
2.576310810051768207529221 -0.0003217527350623567046483675 1.726632562786830416001749
2.575414090474587247570071 0.001471686419299443951413942 1.726057595944711753332967
2.582851674654085716298368 -0.01895002101189783433321523 1.716996675913350367537191
2.59159084195038502684838 -0.03480501975263276120964306 1.710540862962282471215758
2.575169132879152833481839 -0.002605107080293533709791642 1.725490885614214819909762
2.575169132879152833481839 0.002605107080293564067452472 1.725490885614214819909762
2.582851674654085716298368 0.01895002101189785514989694 1.716996675913350367537191
2.59159084195038502684838 0.03480501975263276814853697 1.710540862962282249171153
2.589637496851837639155747 -0.002435003777795243830317506 1.707927499370367474540444
2.581709997481469898161777 0.01504333081480318037859156 1.715854998740734771445204
2.589637496851837639155747 0.03252166540740158984235109 1.707927499370367474540444
2.574027455706537015345248 0.0003217527350623871707294144 1.724349208441599223817775
2.574272413301971873522689 -0.0008116679259317331621495506 1.724915918772096379285585
2.637987450618418439063362 -0.004415059257898219964577624 1.74240250987631606349737
2.630389960494734946649942 0.01372329382806788261595088 1.73480501975263257108395
2.637987450618418439063362 0.03186164691403397392077679 1.74240250987631606349737
2.622792470371051010147312 -0.03480501975263276120964306 1.72720752962894907867053
2.622792470371051010147312 0.03480501975263276814853697 1.72720752962894907867053
2.607597490123684025320472 0.004415059257898349201476584 1.71201254938158209384369
2.615194980247367517733892 -0.0137232938280677438380728 1.719610039505265364212505
2.607597490123683581231262 -0.03186164691403384208179261 1.71201254938158209384369
3.334398191379566611658447 0.01456502689519812224205886 1.731217655401366073419922
3.34219909568978312819354 0.0322965516080979536672757 1.739032597872081531420463
3.34219909568978312819354 -0.003166497817701700943221477 1.739032597872081531420463
3.325949781196373411518152 -0.03439819137956649786058705 1.72341675109114911279562
3.325949781196373411518152 0.03439819137956649092169314 1.72341675109114911279562
3.31814887688615645089385 -0.01666666666666666990481716 1.715601808620433432750474
3.309700466702963694842765 -0.03143377094058713572266583 1.707800904310216694170776
3.309700466702963694842765 0.001899562392746194762829792 1.707800904310216694170776
3.375845746734878360939547 0.00110825971545811083514288 1.725262512980579643340207
3.376254068154032061954695 -0.0002916168771490523607681222 1.72596245127688341369776
3.368929322996513153753995 -0.01435787343788996750504339 1.734441593048791308007139
3.361196256419838768181307 -0.03213279982001474716080125 1.74222079652439565400357
3.361196256419838768181307 0.003417052944234833401077056 1.74222079652439565400357
3.375195661586661621811345 -0.002408430011890622633730086 1.724904044709512307420596
3.366716519814753727501966 -0.01878347980140825101980084 1.732332366595686012900046
3.360041859805450670251048 -0.03444159304879146343836283 1.741169976638661243129036
3.366716519814753727501966 0.01878347980140822326422523 1.732332366595686012900046
3.360041859805450670251048 0.03444159304879144956057502 1.741169976638661243129036
3.375195661586661621811345 0.002408430011890588806622304 1.724904044709512529465201
3.374787340167507032617777 -0.001008553419283459220978649 1.724204106413208759107647
3.374137255019290737578785 0.0002916168771490185336603407 1.723845638142141867277246
3.365658113247382843269406 0.01456502689519811877261191 1.731273960028315350712091
3.357829056623691243999019 0.03224024698114823228589643 1.739060750185556170066548
3.357829056623691243999019 -0.003110193190751985199693497 1.739060750185556170066548
2.642178566051490040678118 0.003071396308938945281241661 1.760892830257448915531882
2.634357132102979726084868 -0.0166666666666666664353702 1.768714264205959008080526
2.642178566051490040678118 -0.03026193702439439192630743 1.760892830257448915531882
2.625862169039565152672822 -0.0003232594601622612172538151 1.776185428499727159135091
2.625188639924660893854025 0.001023798769646301577360137 1.77583515884498521764101
2.631637703089207747098044 -0.01916215185561233672051351 1.766442722841839785274942
2.640706879632190862139396 -0.03435713210297963726702619 1.759869031487802715219004
2.624614426445092352224719 -0.002818744649107930797665711 1.774937685905254358686989
2.624614426445092352224719 0.002818744649107933833431794 1.774937685905254136642384
2.631637703089207747098044 0.01916215185561234018996046 1.766442722841839785274942
2.640706879632190862139396 0.03435713210297963726702619 1.759869031487802715219004
2.637987450618418439063362 -0.004415059257898165320788131 1.75759749012368349241342
2.630389960494734502560732 0.01372329382806787567705697 1.76519498024736698482684
2.637987450618418439063362 0.03186164691403391147073165 1.75759749012368349241342
2.623366683850619551776617 0.000323259460162263981969355 1.773689943310781558238887
2.623940897330188093405923 -0.001471686419299368057261868 1.774587416250512195148303