# geometry NO_DATA 660
#  x  y  z
2.648720257818121481818707 0.04181499769642021968607537 1.493094739878298771174059
2.647440515636241720187627 -0.01666666666666666296592325 1.494627756666331075408038
2.648720257818120593640288 0.008481664363086886815334964 1.493094739878298771174059
2.641559364864371151071509 0.004904365122925221157079712 1.497440515636242253094679
2.636957956274379455408052 -0.02586948384665050532094099 1.498720257818121126547339
2.636957956274379455408052 0.03567821409250094416565346 1.498720257818121126547339
2.64631619283278407550597 -0.04744051563624238770922048 1.493503433862873208681776
2.640435042060913506389852 -0.04744051563624238770922048 1.496316192832784608413021
2.640435042060913506389852 0.04744051563624239464811438 1.496316192832784164323812
2.64631619283278407550597 0.04744051563624239464811438 1.493503433862873208681776
2.69537720941014757869425 0.02677896821592601339645512 1.481401758805779289573934
2.690754418820294091574397 -0.01666666666666668378260496 1.483766693518109303084884
2.69537720941014757869425 -0.006554365117407323811093978 1.481401758805779289573934
2.676825612568253465184398 -0.0111909458374144892001123 1.488016558405666822650915
2.667519596906065437735833 0.007421085486959870872181178 1.48990148858089410666139
2.689697467029674271543627 -0.04075441882029322282487982 1.482709741727490149187929
2.66478173649143945667106 -0.0352786979910410247729402 1.489826590025609132084128
2.673030800363007219999645 -0.04075441882029322282487982 1.486884708059762916221302
2.675768660777633645153628 0.0352786979910410108951524 1.486959606615047890798564
2.66372478470082052481871 0.04452427917074781166251185 1.488769638234990200231778
2.689697467029674715632837 0.04075441882029320894709201 1.482709741727490371232534
2.652737860414625892246931 0.03889876123092562976157893 1.491636621645551663561946
2.655475720829252317400915 0.01104114872684448973860771 1.491711520200836638139208
2.652737860414625892246931 -0.01681646377723665028436351 1.491636621645551663561946
2.733804781463069488722795 -0.001115066249139878059443154 1.473971018745693584151013
2.741902390731534300272187 0.01602304854726281646559727 1.473649209685991667839744
2.741902390731534300272187 -0.01825318104554258386018617 1.473649209685991667839744
2.725398944749046314939278 -0.01751898186666681761503028 1.474927496619309552627897
2.733922711617511769333078 -0.03380478146306936659826192 1.474560397029871738894258
2.716829887350844963123109 -0.03371420040359745379232592 1.476508828715327625857867
2.716829887350844963123109 0.03371420040359746767011373 1.476508828715327625857867
2.725398944749046314939278 0.0175189818666668453706059 1.474927496619309552627897
2.733922711617511769333078 0.03380478146306937353715583 1.474560397029871738894258
2.725281014594604034328995 -0.0003808670702641087785211838 1.474338118335131397884652
2.724854856994603835573798 0.0004714481297360556826155087 1.474383408864867295307022
2.716285799596402927846839 0.002691216062299485629882856 1.475964740960885146492387
2.708142899798201774785866 0.01973874979923027905837074 1.477500782527167100255383
2.708142899798201774785866 -0.01435631767463131647222241 1.477500782527167100255383
2.786811273374506292554997 -0.001469590894182554608599078 1.470787264511735914496171
2.793405636687253057459657 0.01867501581365700602521684 1.471791439085231134598075
2.793405636687253945638076 -0.02161419760202212131394717 1.471791439085231134598075
2.774392155989506392188559 -0.02355950641977314422015333 1.47091421594833349217879
2.78443293917880696497491 -0.03681127337450622316605831 1.471886870357208554338513
2.764319852635586549638447 -0.03674823304526692036020563 1.472095652844349844556859
2.764319852635586105549237 0.03674823304526693423799344 1.472095652844349844556859
2.774392155989506392188559 0.02355950641977316850628199 1.47091421594833349217879
2.784432939178806520885701 0.03681127337450623704384611 1.471886870357208554338513
2.776770490185207052036276 -0.003414899711933581417933059 1.469814610102860630291843
2.773324070308653688243794 0.003477940041172908076233528 1.46984613026748012210021
2.763251766954733401604472 -0.001115066249139879577326195 1.471027567163496918567489
2.756625883477366478757631 0.01896650012946037369698793 1.472177483894893557092587
2.756625883477366478757631 -0.02119663262774014456102378 1.472177483894893557092587
2.834962039094947261474999 0.0006066677561495459423263066 1.473674628116461216009725
2.84248101954747411923563 0.01890204018443006339644796 1.474792314875342791324897
2.84248101954747411923563 -0.01768870467213098235381707 1.474792314875342791324897
2.824670875592276253485124 -0.02012220549856658796672448 1.473042169830662384555353
2.833917625460752098831563 -0.03496203909494718237160882 1.474258920243880055522823
2.815523189378136059701774 -0.03516016640361940837067323 1.473121727264377955890495
2.815523189378135615612564 0.03516016640361942224846103 1.473121727264377955890495
2.824670875592276253485124 0.0201222054985666087834062 1.473042169830662384555353
2.833917625460752098831563 0.03496203909494719624939663 1.474258920243880055522823
2.825715289226471416128561 -0.001826833070286060321102406 1.47245787770324332299765
2.823987519810521096275124 0.001628705761613868582826647 1.472358814048907449389958
2.814839833596380902491774 -0.001469590894182552440194733 1.4724383714826230207251
2.80741991679819058447265 0.01702390884277018776038481 1.472616992570674465667935
2.80741991679819102856186 -0.01996309063113530304911514 1.472616992570674465667935
2.893839026360247146385518 0.02549007475186292753788209 1.4816510483916158769091
2.887678052720494381588878 -0.01666666666666666296592325 1.48158406373617879125959
2.893839026360247146385518 -0.00784325858147040533285832 1.4816510483916158769091
2.877585545507020725608527 -0.003518347760279722652443368 1.48110389326730063075388
2.873654011933300722603235 0.004344719387160782958501315 1.480690707453860222031494
2.886944120816160808118411 -0.03767805272049411235979477 1.480850131831845217789123
2.867079852480106882950395 -0.02452973381410716857686793 1.479234867451794999126946
2.870277454149493756574429 -0.03767805272049411235979477 1.478914121360902278468075
2.87685161360268759622727 0.02452973381410717551576184 1.480369961362967501372623
2.866345920575773753569138 0.03685168109361306593152463 1.478500935547461647701084
2.886944120816160808118411 0.03767805272049411235979477 1.480850131831845217789123
2.856574159453193040292263 0.02079168218309592960912902 1.477365841636289367500012
2.863148318906386879945103 0.0006066677561495370518684922 1.47882168163835459040456
2.856574159453193040292263 -0.01957834667079685550539203 1.477365841636289589544617
2.947241082202769035802703 0.03774253206732958859648264 1.490501449864560346014741
2.944482164405537449880512 -0.0166666666666666525575824 1.491112348236433682302504
2.947241082202769035802703 0.004409198733996262664636134 1.490501449864560790103951
2.93175138207594354611274 -0.008794897992521345797545251 1.490546280068465012647039
2.921779517543580784177948 0.0111488310722044712403056 1.489369313528623672837625
2.943212896695744706931919 -0.04448216440553779543742863 1.489843080526641161398516
2.917843633206508080490948 -0.03661039573139248520794453 1.48721120888138047533289
2.926546230029078543566357 -0.04448216440553779543742863 1.487118907711429738327524
2.930482114366150803164146 0.03661039573139249214683844 1.489277012358672713787655
2.916574365496715337542355 0.04212823132585469254607347 1.485941941171588176473506
2.943212896695744706931919 0.04448216440553780237632253 1.489843080526641161398516
2.903935884337072614869157 0.02994025335722350078526688 1.48387613769429593801874
2.907871768674145318556157 0.004478688698035475541925354 1.486034242341539135523476
2.903935884337072614869157 -0.02098287596115254449724574 1.48387613769429638210795
2.982983759941811641169807 -0.01530546171192764988433499 1.498289221653739788919779
2.969058047490296559089984 0.01460631492888494684101452 1.496578443307479577839558
2.982983759941811641169807 0.04451809156969752795385276 1.498289221653739788919779
2.967347269144035681875948 -0.04657844330747924754820843 1.49491940548463553284364
2.967347269144035681875948 0.04657844330747926142599624 1.49491940548463553284364
2.95171077834625972258209 0.03983881096927105458505025 1.491549589315531498812106
2.953421556692520599796126 0.009927034328458466533318116 1.493208627138375321763419
2.95171077834625972258209 -0.01998474231235412845730792 1.491549589315531720856711
2.593594190045744429795604 0.01415902195544092162515781 1.520564831909696490441775
2.587188380091489214862577 -0.01666666666666667337426411 1.525673701023464889914294
2.593594190045744429795604 -0.01917431137789241124558259 1.520564831909696490441775
2.573076234472200685132748 -0.01155762457190944759999329 1.537188380091489392498261
2.565369898807167814425156 -0.03207933799673174518618524 1.543594190045744607431288
2.565369898807167814425156 0.008964088852912856925092555 1.543594190045744607431288
2.585971564305723724430663 -0.03718838009148897616462648 1.52445688523769984357159
2.571859418686435194700834 -0.03718838009148897616462648 1.535971564305723902066347
2.571859418686435194700834 0.03718838009148896228683867 1.535971564305723902066347
2.585971564305723280341454 0.03718838009148896922573257 1.524456885237699399482381
2.616813518478696476421419 -0.04582234379228956183682797 1.506028002583900349264923
2.606028002583900438082765 -0.04582234379228956183682797 1.511179990182542898224938
2.606028002583900438082765 0.04582234379228956183682797 1.511179990182542898224938
2.616813518478696476421419 0.04582234379228956183682797 1.506028002583900349264923
2.623659859893447077183737 -0.02425131200269767944854848 1.502088828103854911688586
2.614963172102505950533669 0.004904365122925216820271022 1.504177656207710267466382
2.623659859893447077183737 0.03406004224854811135436705 1.502088828103854911688586
2.604177656207710356284224 -0.006362691469381375961034131 1.509329643806353260515607
2.602088828103855000506428 0.02279298565624152464459407 1.512392803301140675742431
2.602088828103855000506428 -0.03551836859500426962776842 1.512392803301140675742431
2.999780895649736933705753 -0.01619713773162343231626359 1.500453868817784641720436
2.999890447824868022763667 0.01691709125144656364336804 1.500579081110174683999503
2.999890447824868466852877 -0.04931136671469342480644826 1.500579081110174906044108
2.998860271955977374602753 -0.04978089564973665892555488 1.500344316642653552662523
2.998860271955977374602753 0.04978089564973665198666097 1.500344316642653108573313
2.99875071978084584145563 -0.01666666666666666990481716 1.500219104350263288338851
2.997830096087086282352629 0.01438721057862159605211794 1.500109552175131755191728
2.997830096087086282352629 0.04772054391195491851451749 1.500109552175131755191728
3.045248019222170476894007 -0.006968940290717333743697459 1.509600843965803296242711
3.047624009611084705539952 0.02161241226478730070859058 1.512073716764863684502984
3.047624009611085149629162 -0.03555029284622197166543245 1.512073716764863684502984
3.01474744894506629933062 -0.04494912780170846888783132 1.502832763056228815301552
3.031264669901502006865712 -0.04524801922217129568348781 1.507532180533972310243485
3.000456772667314808700212 -0.04970110857953717597990106 1.500691537134836384126402
3.000456772667313920521792 0.04970110857953716904100716 1.500691537134836162081797
3.01474744894506629933062 0.04494912780170848276561912 1.502832763056229037346156
3.031264669901501562776502 0.04524801922217130956127562 1.507532180533972310243485
3.028730798265734769358914 -0.0163677752462038327008198 1.504901426488059801300778
3.014589567698215066826606 0.01191468588883797148636479 1.502674881809376916663723
3.000298891420462688017778 -0.01619713773162343231626359 1.500533655887984263443968
3.000149445710231788098099 0.01683730418124707375882032 1.500618974645274494861269
3.000149445710231788098099 -0.04923157964449393492190055 1.500618974645274494861269
3.085756417335195678219861 0.004264591042346914037675099 1.524709211519311269356081
3.092878208667598105563457 0.02335434171087590396465039 1.528053049041416144859795
3.092878208667598105563457 -0.01482515962618211752266362 1.528053049041415700770585
3.072954093364443473035408 -0.02356564428181474185608479 1.5205310093625814538143
3.083525373504420130643666 -0.03575641733519564768872812 1.524901251690397696592072
3.063409218030179292924231 -0.03780922694661909000402034 1.518258081218153865421527
3.063409218030178848835021 0.03780922694661913163738376 1.518258081218153865421527
3.072954093364443028946198 0.02356564428181482512281164 1.520531009362581231769695
3.083525373504419242465246 0.03575641733519569626098544 1.524901251690398140681282
3.075185137195219908790023 -0.004475893613285714632554768 1.520338969191494804533704
3.07173564838764523443615 0.002423084001862403722565853 1.519312564385782993170437
3.062190773053380610235763 -0.006968940290717301651313154 1.517039636241355626822269
3.05609538652668977221083 0.01417361998923511931525177 1.515793112902639849792763
3.05609538652668977221083 -0.02811150057066976598596497 1.515793112902639849792763
3.135299638942675493069601 -0.01157015578795946193768618 1.5468697947306355722219
3.122345127375384610246556 0.01550276700664458308376314 1.543739589461270877990273
3.135299638942675493069601 0.04257568980124863677882985 1.546869794730635350177295
3.11921492210601991601493 -0.04373958946127071839571343 1.540668756918475823525227
3.11921492210601991601493 0.04373958946127071145681953 1.540668756918475601480623
3.103130205269364338960258 0.03133751383695091569103752 1.534467719106315630739346
3.106260410538729033191885 0.004264591042346857659162129 1.537538551649111129293601
3.103130205269364783049468 -0.02280833175225718822964893 1.534467719106315630739346
2.544419827725328708822872 0.01131543806948072383722348 1.566895610344151146264835
2.538839655450658483459847 -0.01666666666666663867979459 1.575077546760069946429894
2.544419827725328708822872 -0.02201789526385260556406998 1.566895610344151146264835
2.529192027312730850496791 -0.002628589609189609967165868 1.588839655450659194002583
2.525124571449472998807551 -0.02480157839318213042201222 1.594419827725329641410212
2.525124571449472998807551 0.01954439917480288446682835 1.594419827725329863454817
2.537529931014587347704037 -0.03883965545065916347144963 1.573767822323998810674084
2.527882302876659714740981 -0.03883965545065916347144963 1.587529931014588058246773
2.527882302876659714740981 0.03883965545065919122702525 1.587529931014588502335982
2.537529931014587347704037 0.03883965545065919122702525 1.573767822323999254763294
2.555276269447514625454687 -0.0481855010665756880450239 1.552721748400136547729744
2.552721748400135659551324 -0.0481855010665756880450239 1.555626306376213907611827
2.552721748400135659551324 0.0481855010665756949839178 1.555626306376213463522618
2.555276269447514181365477 0.0481855010665756880450239 1.552721748400136103640534
2.556016291561468811721625 -0.04307645897181845706658265 1.550907249466712212182529
2.554369019980802235636475 -0.01155762457190943545692896 1.551814498933424157911531
2.556016291561468811721625 0.01996120982799958615272473 1.550907249466711990137924
2.551814498933423269733112 -0.01085755071451179401553766 1.554719056909501517793615
2.550907249466711324004109 0.02066128368539722759411603 1.556716365418866931946695
2.550907249466711324004109 -0.04237638511442082256408526 1.556716365418866931946695
3.149778585196906455223598 -0.01617043222578500027974968 1.550469532023534213749372
3.149889292598452961158273 0.01694148630445520622989086 1.550606941842428421196587
3.149889292598452961158273 -0.04928235075602517556436766 1.550606941842428643241192
3.149307342768442374847382 -0.04977858519690687294501075 1.550358824621987929859301
3.149307342768441930758172 0.04977858519690684518943513 1.550358824621987707814696
3.149196635366895868912707 -0.01666666666666669766039277 1.550221414803093722412086
3.148725392938430900358071 0.01528135220355143243653462 1.550110707401546550343596
3.148725392938430900358071 0.04861468553688477745033936 1.550110707401546550343596
3.192582684285565797210893 -0.001607862516165394330472371 1.564946717789685637356456
3.196291342142782987423288 0.02430815510273343776903587 1.568767462007718771488385
3.196291342142782987423288 -0.02752388013506424160881103 1.56876746200771899353299
3.163552125669865766610656 -0.04219358499151384944703125 1.554302774717634116896647
3.180024242689506230874485 -0.04258268428556550438957018 1.561637627145858964183844
3.150594116860416349368279 -0.04961090070594834783301863 1.550842234080857640066142
3.150594116860416349368279 0.0496109007059482923218674 1.550842234080857195976932
3.163552125669865766610656 0.04219358499151380087477392 1.554302774717633894852042
3.180024242689506230874485 0.04258268428556551132846408 1.561637627145858520094635
3.176110567265924888857853 -0.01627756737261499414559651 1.557611865361460790069259
3.163347108103501170717209 0.009249350952232131620189826 1.554097757151269521003201
3.150389099294051753474832 -0.01617043222578501762698444 1.550637216514492822128091
3.1501945496470260543731 0.01677380181349666030121703 1.550690784087907836408249
3.15019454964702561028389 -0.04911466626506664351348164 1.550690784087908058452854
3.248978663155006163520966 0.0460218898859491298836133 1.597043226730942899749266
3.247957326310011882952722 -0.01666666666666665602702935 1.59698960809798018445349
3.248978663155006163520966 0.01268855655261580395176679 1.597043226730942899749266
3.236259295377785782932278 -0.006729395197785217885844133 1.59298869057557124229163
3.225582601290554407569289 0.01462399297667877837159089 1.589041391686124571336336
3.247262518211027071401986 -0.04795732631001210083399044 1.59629479999899559494736
3.22061396555611390013496 -0.03802005484113066269280523 1.584872762829149461794032
3.230595851544361352125634 -0.04795732631001210777288435 1.588125253619611543243195
3.235564487278801415470753 0.03802005484113066269280523 1.59229388247658620869629
3.219919157457129088584225 0.04006272853111855769547844 1.584177954730164650243296
3.247262518211027071401986 0.04795732631001210777288435 1.59629479999899559494736
3.204968635734441129159222 0.02178819934828648066660328 1.576756835082727459251828
3.209937271468881636593551 -0.001607862516165409292462352 1.580925463939702568794132
3.204968635734440685070012 -0.02500392438061729838416625 1.576756835082727459251828
3.253476684137263319485101 -0.04610969822031172477005967 1.599586382357575331525368
3.252358768532268573636657 -0.01360360017182801230239964 1.599172764715150352188289
3.253476684137263319485101 0.01890249787665569669581345 1.599586382357574887436158
3.251945150889844260433392 -0.04917276471515037716830676 1.598618664145543322163689
3.251945150889844260433392 0.04917276471515037716830676 1.598618664145543322163689
3.250413617642424757292474 0.04723732829108739927903571 1.597650945933511978935826
3.250827235284849070495738 0.0147312302426036920155461 1.59820504650311834282661
3.250413617642424757292474 -0.01777486780588002218683741 1.597650945933511978935826
2.508723902252592452555291 -0.03919988763907543416475932 1.647923789891667656348773
2.507476266288794164438514 -0.01001897452240622932162495 1.645847579783335845604597
2.508723902252592452555291 0.01916193859426298939929723 1.647923789891667656348773
2.516197684487652352913756 -0.04313320850953775154046355 1.609178645958914133373696
2.511254856067246521433844 -0.03898078829287363739064531 1.623769102517248708039688
2.511145306394145126915873 -0.04584757978333588168684543 1.637002373438684266204746
2.511254856067245633255425 0.0389807882928736165739636 1.623769102517248485995083
2.511145306394144682826663 0.04584757978333588168684543 1.637002373438684266204746
2.516197684487652352913756 0.04313320850953773766267574 1.609178645958914133373696
2.517471472802708110094727 -0.02909513145206072196047309 1.603433395745231138107556
2.513885830019201073071144 -0.002628589609189647263720602 1.60686679149046263148648
2.517471472802708110094727 0.02383795223368143784137274 1.603433395745231360152161
2.508943001598794353412814 0.01251424645000253667304069 1.621457248048796984107867
2.507585815961895114867275 -0.009799875176204425608617044 1.632614308861900287439539
3.292118237239865408128026 0.0006569325510071751536914086 1.616543562368972120069088
3.296059118619933059335381 0.02610850312420525190515441 1.621264480597741641787479
3.296059118619933059335381 -0.02479463802219090962086767 1.621264480597741641787479
3.280923985200685510932317 -0.04211823723986474199421082 1.612602680988904468861733
3.280923985200685510932317 0.04211823723986474893310472 1.612602680988904468861733
3.276983103820617859724962 -0.01666666666666666296592325 1.607881762760135391232552
3.265788851781437962529253 -0.0214853629319632713490229 1.603940881380067740025197
3.265788851781437962529253 0.0118479704013700615217175 1.603940881380067517980592
3.326353818546350815665846 -0.02006257431279629202536263 1.646416392859147315164137
3.318552319984455323265138 0.006103544738831190481775923 1.642832785718294275056905
3.326353818546350815665846 0.03226966379045868166253186 1.646416392859147315164137
3.314968712843602283157907 -0.04283278571829415848348788 1.638411525801317214501296
3.314968712843602283157907 0.04283278571829414460570007 1.638411525801317214501296
3.303583607140853306560757 0.02682305160263465451664366 1.630406658743487557927665
3.307167214281705902578778 0.000656932551007163552728163 1.634827918660464618483275
3.303583607140853306560757 -0.02550918650062031917125083 1.630406658743487557927665
2.517071211653405526931238 -0.02954680939060882333135893 1.696618021044014490428253
2.513608574260681738365975 -0.00297743396924704181727428 1.693236042088028359131613
2.517071211653405526931238 0.02359194145211474663570428 1.696618021044014046339043
2.509613537109260494872842 -0.04584871333919200708795216 1.656289691037130085149442
2.50967166999311608321932 -0.03908475542722045920074336 1.669574378747811005396784
2.514440643011421450125908 -0.04323604208802846182724267 1.684165402084073726030056
2.50967166999311608321932 0.03908475542722044532295556 1.669574378747811005396784
2.514440643011421894215118 0.04323604208802845488834876 1.684165402084073281940846
2.509613537109260494872842 0.04584871333919200014905826 1.656289691037130085149442
2.508723335474664750677221 -0.03920102119493155956586605 1.652075643330404020048263
2.507475132732938760682373 -0.01001897452240623105634842 1.654151286660808128914368
2.508723335474664750677221 0.01916307215011910786151006 1.652075643330404020048263
2.507533265616793904939641 0.009902708754695104670373595 1.667435974371488827117105
2.508839601242375927370176 -0.01251538000585868115610566 1.678645018751765860542946
3.346870874504981330233022 -0.00859195213199904009315766 1.657166482762352899271718
3.348435437252490931570037 0.02161225570631539888433181 1.659639277282177305394839
3.348435437252490487480827 -0.03879615997031349294843494 1.659639277282177083350234
3.343153876288573300712414 -0.04687087450498110541285968 1.655601920014843297934704
3.343153876288573300712414 0.04687087450498111929064748 1.655601920014843297934704
3.34158931354106414346461 -0.01666666666666665602702935 1.653129125495019113856188
3.337872315324655225765582 0.002974419243812315236802357 1.651564562747509734563778
3.337872315324655225765582 0.03630775257714564940858537 1.651564562747509734563778
3.386308710991611903295961 -0.007245027208683835207025936 1.693553738200294755955611
3.377823748195364572666222 0.0131957825252389752274107 1.687107476400589556320142
3.386308710991611903295961 0.03363659225916179607018819 1.693553738200294755955611
3.371377486395658706896938 -0.03710747640058948554342422 1.680924428800961933916369
3.371377486395658706896938 0.03710747640058947860453031 1.680924428800961933916369
3.356446261799705954587125 0.01184885760192375993293812 1.668295119401628889832523
3.362892523599411376267199 -0.008591952131999059175115896 1.674478167001256512236296
3.356446261799705954587125 -0.02903276186592186960955253 1.668295119401629111877128
2.538212766867832037576136 0.014748048841614702988978 1.727494590886308190036402
2.544106383433915929970226 0.03629414904278038811469287 1.73730833207436496934406
2.544106383433915929970226 -0.006798051359551006422865527 1.73730833207436496934406
2.534284333115959242377357 -0.0382127668678323567652555 1.721600974320224297642312
2.534284333115959242377357 0.03821276686783237758193721 1.721600974320224297642312
2.528390716549875349983267 -0.01666666666666664908813544 1.711787233132167518334654
2.524462282798002554784489 -0.01476466710141466007200073 1.705893616566083625940564
2.524462282798002554784489 0.01856866623191867626818663 1.705893616566083625940564
2.551771601222825314181364 -0.04793888382040021461927282 1.749710485043225460799476
2.55132007304657459911823 -0.01518458040061601913017775 1.749420970086450921598953
2.551771601222825314181364 0.01756972301916817982836427 1.749710485043225460799476
2.551030558089800059917707 -0.04942097008645086192446527 1.748751176130699303001848
2.551030558089800059917707 0.04942097008645086886335918 1.748751176130699303001848
2.55028951495677436156484 0.04750235226139888633500874 1.747791867218173367248824
2.550579029913548900765363 0.01474804884161468390701977 1.748461661173924763801324
2.55028951495677436156484 -0.01800625457816951852096921 1.747791867218173367248824
3.398766350087696785919888 -0.01331831304952109037986752 1.702907826720875927861698
3.399383175043848570595628 0.01878137037150899579796004 1.703965178573297212238913
3.399383175043848570595628 -0.04541799647055117655769507 1.703965178573296990194308
3.397647732973134715450669 -0.04876635008769675261319776 1.702291001764724365230563
3.397647732973134715450669 0.04876635008769675261319776 1.702291001764724365230563
3.397030908016983374864139 -0.0166666666666666664353702 1.701233649912303080853349
3.39591229090242130439492 0.01196213261293573373866828 1.700616824956151518222214
3.39591229090242130439492 0.04529546594626907007885563 1.700616824956151518222214
3.433735681047960230927174 -0.009104150993155556148561658 1.74283983204111603271258
3.427608092462306466075006 0.009908846422409488263749466 1.73567966408223206542516
3.433735681047960230927174 0.02892184383797453267606059 1.74283983204111603271258
3.420447924503422498787586 -0.03567966408223172125602218 1.727847342183022050221552
3.420447924503422498787586 0.03567966408223170737823438 1.727847342183022050221552
3.407160167958884322558788 0.005694684366043954899805346 1.71285485232492828977513
3.414320335917768733935418 -0.01331831304952109731876142 1.720687174224138082934132
3.407160167958884322558788 -0.0323313104650861452005195 1.712854852324928067730525
2.597925314820914710622901 0.04455968273243587907117558 1.796634367911520868688058
2.59585062964182888833875 -0.01666666666666667684371106 1.795205156187132278233776
2.597925314820914266533691 0.01122634939910254099626474 1.796634367911520868688058
2.586560419981593916816109 -0.001913752653803194427387102 1.788474172635396985953093
2.579344895500444323488409 0.01251729630849581810514426 1.783172400808050728215903
2.567640181110797392705081 -0.04123631666144737806245502 1.766899137977771871987898
2.581999691287272913342576 -0.04585062964182915618005509 1.780613174699551048973944
2.574275594984203330284345 -0.02648340264858390150082279 1.776189347638006843510539
2.574275594984203330284345 0.02648340264858387721469413 1.776189347638006399421329
2.567640181110797392705081 0.04123631666144736418466721 1.766899137977771871987898
2.581999691287273357431786 0.04585062964182915618005509 1.78061317469955082692934
2.553789242756241417708907 -0.04390360075356757041387112 1.752307156490190864772671
2.555355356113406806173316 -0.01518458040061603647741251 1.754614312980381507500738
2.553789242756241417708907 0.01353443995233552521462173 1.752307156490190864772671
2.561990769986813631931 0.001913752653803169490737135 1.763904522640616479023379
2.567060070503054181045854 -0.01205235368628488831777013 1.770887575810660141684139
2.601724086690551551726003 -0.04802406648017143453444078 1.799748153170722675397997
2.601239813589191207654494 -0.01519442680539198793632227 1.799496306341445972520887
2.601724086690551551726003 0.01763521286938745519234928 1.799748153170722675397997
2.600987966759914726821989 -0.04949630634144611823765914 1.799102679716026331746548
2.600987966759914726821989 0.04949630634144611129876523 1.799102679716026331746548
2.600251846829277457828766 0.04820535943205284112877962 1.798457206261329321961284
2.600503693658553938661271 0.01537571975727339279593764 1.798850832886749184780228
2.600251846829277013739556 -0.01745391991750604859801044 1.798457206261329321961284
3.447388103248820279134179 -0.006666457414798485255069682 1.757612001377113708500133
3.448694051624409784295722 0.02405497916735513733166307 1.761306157627458013337218
3.448694051624409784295722 -0.03738789399695210957652591 1.761306157627458235381823
3.445315141502280908980538 -0.04738810324882029162418817 1.756306053001523981293985
3.445315141502281353069748 0.04738810324882028468529427 1.756306053001523981293985
3.444009193126691403818995 -0.01666666666666666990481716 1.752611896751179898501505
3.441936231380152921843774 0.007296949671229784051273981 1.751305948375589949250752
3.441936231380152921843774 0.04063028300456311692201439 1.751305948375589949250752
3.467708888153296697964834 -0.02880038123621217818759455 1.79650926938950861178057
3.464090539992384698564365 -0.002448509123861281229495024 1.793018538779017401196825
3.467708888153295809786414 0.02390336298848961052443407 1.79650926938950861178057
3.460599809381893265936014 -0.04301853877901755385249061 1.784842707348776258413636
3.460599809381893265936014 0.04301853877901755385249061 1.784842707348775814324426