# geometry NO_DATA 884
#  x  y  z
2.598879733793926227747306 0.04327840276355735676938608 1.444398668969629984104586
2.5977594675878536989444 -0.01666666666666663867979459 1.445518935175705843576566
2.598879733793926227747306 0.009945069430224018694475241 1.444398668969629984104586
2.595518935175709973606217 0.01218560184237887228375641 1.447759467587854231851452
2.594398668969638777070941 -0.01890719907880862582505443 1.448879733793927204743568
2.594398668969638777070941 0.04327840276356634263699164 1.448879733793926982698963
2.596639201381775841070976 -0.04775946758785413331915848 1.444398668969627763658536
2.594398668969631671643583 -0.04775946758785413331915848 1.446639201381776373978028
2.594398668969631671643583 0.047759467587854168013628 1.446639201381775929888818
2.596639201381775841070976 0.047759467587854168013628 1.444398668969627763658536
2.642548620389634450589256 0.005291722337797047717722343 1.412743101948162660619346
2.635097240779268545907144 -0.01666666666666663174090068 1.420194481558532562104347
2.642548620389634450589256 -0.02804161099553628688774154 1.412743101948162660619346
2.619550840318672690898438 -0.01442613425452429938566912 1.433976974573197171736183
2.611455819468442740571845 0.001763907445935362309358263 1.440308087977491879883019
2.627645861168897756243723 -0.03509724077926862362275529 1.412743101948161994485531
2.610335553262371544036569 -0.03285670836712629300224719 1.439187821771414466098804
2.610979194502231148788951 -0.03509724077926863056164919 1.425405328756749412377758
2.612099460708302345324228 0.03285670836712635545229233 1.426525594962826604117367
2.602884173652001198462358 0.04775946758785770684951899 1.431736442161043898479988
2.627645861168897756243723 0.0350972407792686583172248 1.412743101948161994485531
2.601120266206070841263909 0.04327840276356090254417097 1.444398668969631760461425
2.602240532412141593709975 0.0121856018423698968244917 1.44551893517570917424564
2.601120266206070397174699 -0.01890719907882114012021013 1.444398668969631760461425
2.692064189130364049162836 0.002385134782177894194332701 1.410320945651813318022505
2.684128378260728808868407 -0.01666666666666663521034764 1.418256756521452555119822
2.692064189130364049162836 -0.03094819855115543000279033 1.410320945651813318022505
2.674913091204427217917328 -0.001763907445936685903370433 1.426676998650362460097085
2.673633615017760867260677 0.0007950449273948483747131988 1.427161429909633572066241
2.67619256739108957177109 -0.03412837826072812746902585 1.410320945651813762111715
2.666182235407395850756984 -0.01922561903999817772836778 1.41971005029926278240282
2.659525900724422520227108 -0.03412837826072813440791975 1.411289808170353321514767
2.66697728033478798082001 0.01922561903999822630062511 1.418741187780724111178188
2.658246424537757057748877 0.0350972407792700669126873 1.411774239429624433483923
2.67619256739108957177109 0.03412837826072816216349537 1.410320945651814206200925
2.65745137961036492768585 0.00529172233779845457846136 1.412743101948163104708556
2.664902759220730388278753 -0.01313885177480492508217402 1.420194481558533894371976
2.65745137961036537177506 -0.03156942588740832555949112 1.412743101948163104708556
2.741979097158218525720486 0.001874582949304160308170997 1.409895485791085478766149
2.733958194316437051440971 -0.01666666666666666296592325 1.417916388632870283714738
2.741979097158218525720486 -0.03145875038402917017732463 1.409895485791085478766149
2.725227338519406572459047 -0.0007950449273947851657265429 1.426022383446800656514597
2.724517385564157123667428 0.0006248609831036992280639542 1.426107475418946224365868
2.725937291474652912626198 -0.03395819431643701952205916 1.409895485791086366944569
2.71658157469452143928379 -0.01808657257716514421552745 1.418171664549307209313156
2.709270624807986749260635 -0.03395819431643701952205916 1.410065669735377724691716
2.717206435677622877733484 0.01808657257716515115442135 1.418001480605016739744428
2.708560671852737300469016 0.03412837826072812053013195 1.410150761707523070498382
2.725937291474652912626198 0.03395819431643703339984697 1.409895485791086366944569
2.707935810869636306108532 0.002385134782177854295692754 1.41032094565181354006711
2.715871621739271990492171 -0.01507657681188359632962204 1.418256756521452555119822
2.707935810869636306108532 -0.03253828840594504001604292 1.41032094565181354006711
2.791972989817233852249956 0.001837938903390529381959295 1.409864949086157226432192
2.783945979634466993957176 -0.01666666666666669419094582 1.417891959268928303572466
2.791972989817233852249956 -0.03149539442994279958565329 1.409864949086157226432192
2.775300215809581416692708 -0.0006248609831033012174464347 1.425925076792684764726005
2.774681462167463141810231 0.0006126463011329832432372289 1.42593118413366970465006
2.775918969451697027039927 -0.03394597963446636945672452 1.409864949086158336655217
2.766660559325681223441507 -0.01790417395090297680848579 1.417910281291884899701472
2.759252302785029975495945 -0.03394597963446636945672452 1.409877163768129992860167
2.76727320562681144977546 0.01790417395090292129733456 1.417898066609915019853361
2.758633549142911256524258 0.03395819431643656849395541 1.409883271109115376873433
2.775918969451696582950717 0.03394597963446634170114891 1.409864949086158780744427
2.758020902841781918368724 0.001874582949303702341173339 1.409895485791085478766149
2.766041805683562948559029 -0.01541694470046623723080703 1.417916388632870283714738
2.758020902841781918368724 -0.03270847235023614102411571 1.409895485791085478766149
2.84201259169359055078985 0.002075550161531371402834356 1.410062958467940719131661
2.834025183387181456851067 -0.01666666666666670459928667 1.418050366774356030319382
2.84201259169359055078985 -0.03125778317180196580471474 1.410062958467940719131661
2.825385526903282595867495 -0.00061264630113218722200219 1.425998173204413577153105
2.824733278725791940644285 0.0006918500538475660932569156 1.425958571328055812799107
2.826037775080767922020186 -0.03402518338718096835293636 1.410062958467942495488501
2.816706268543025082351505 -0.01797116302164645032513057 1.417931561145285179748043
2.809371108414101758654624 -0.03402518338718096141404246 1.40998375471522940927116
2.817398118596868616947404 0.01797116302164638440563849 1.418010764898000042322224
2.808718860236611547520624 0.0339459796344654465838353 1.409944152838871866961767
2.826037775080767922020186 0.03402518338718093365846684 1.410062958467942495488501
2.808027010182768012924726 0.001837938903389633397283953 1.409864949086156560298377
2.816054020365535315306715 -0.01544137406440918361405501 1.417891959268927415394046
2.808027010182768012924726 -0.03272068703220796376252011 1.409864949086156560298377
2.892122489246080618841006 0.002734935476468162637853077 1.41061244623038728462916
2.884244978492161326499854 -0.01666666666666664908813544 1.418489956984314570576089
2.892122489246080618841006 -0.03059839785686517543705776 1.41061244623038728462916
2.875565720131904701162284 -0.0006918500538459768697124863 1.426257570185750722657758
2.874763972525567812255076 0.0009116451588283155070546737 1.426147672633259588792498
2.876367467738236260998974 -0.03424497849216161238228295 1.410612446230390171209024
2.866776564219157386048664 -0.01827016187934094038070043 1.418160264326845165783197
2.859700801071570097633412 -0.03424497849216161238228295 1.410392651125412122325997
2.867688209377979635661404 0.0182701618793409785446169 1.418380059431826101246088
2.858899053465232320547784 0.03402518338717935159065675 1.410282753572920544371527
2.876367467738236705088184 0.03424497849216162626007076 1.410612446230389949164419
2.857987408306409626845834 0.002075550161529789335024265 1.410062958467939608908637
2.865974816612820053052246 -0.01528296655898287760566578 1.418050366774354031917937
2.857987408306409626845834 -0.03264148327949556449567581 1.410062958467939608908637
2.942490928308316711081716 0.004945569849871704615207335 1.412454641541554645201018
2.934981856616634132706167 -0.01666666666666664214924154 1.419963713233252988743516
2.942490928308316711081716 -0.02838776348346162131663917 1.412454641541554645201018
2.926192700703887261681757 -0.0009116451588255820165374033 1.427104345862713064008176
2.924912616482823857211315 0.001648523283300879329130173 1.426735906800475683908758
2.927472784924940896189582 -0.03498185661663416601285803 1.412454641541560196316141
2.917035105728903232602534 -0.01922683510879310761487737 1.418858396046549730229458
2.91080611825827428873481 -0.03498185661663416601285803 1.411717763417094761990711
2.918683629012194913343592 0.01922683510879314924824079 1.419595274171020493625406
2.909526034037210884264368 0.03424497849215896172481166 1.411349324354856715757478
2.927472784924940896189582 0.03498185661663418682953974 1.412454641541559974271536
2.90787751075392009170173 0.002734935476465495066827893 1.410612446230385730316925
2.915755021507840272221301 -0.01484337634902677810488925 1.41848995698431190604083
2.90787751075392009170173 -0.03242168817451906992488375 1.41061244623038595236153
2.994734299134949484511026 0.01840579480961596764432286 1.42367149567466633186541
2.989468598269898969022051 -0.01666666666666666990481716 1.428937196539757703561691
2.994734299134949484511026 -0.01492753852371737390003492 1.423671495674666553910015
2.980311003294917604478087 -0.001648523283295429912170826 1.431959526578213459657718
2.976419109184986755423097 0.006135264936565992810457715 1.42971615575157806610207
2.984202897404822696358906 -0.03946859826989933262009203 1.423671495674681430898545
2.968910037493301068423079 -0.02445045488652809739793526 1.422207084059882831184041
2.967536230738155644814924 -0.03946859826989933262009203 1.419184754021441730031938
2.975045302429841331814941 0.02445045488652809045904135 1.426693825713137186994572
2.963644336628225239849144 0.03498185661662875367561298 1.41694138319480633647629
2.984202897404822696358906 0.03946859826989933955898593 1.423671495674681430898545
2.957509071691685420546492 0.004945569849866271461280576 1.412454641541551980665758
2.965018143383370663457299 -0.01336962010009582618730306 1.419963713233247215583788
2.957509071691685420546492 -0.03168481005005790995809889 1.412454641541551980665758
3.026328504325232593430428 -0.01840579480970873718637115 1.444734299134941668540932
3.021062803460203838312736 0.004396136793508207199487892 1.439468598269883603535391
3.026328504325232593430428 0.02719806839672515158534694 1.444734299134941668540932
3.015797102595144885128775 -0.03946859826988361602539968 1.434202897404800225444887
3.015797102595144885128775 0.03946859826988361602539968 1.434202897404800225444887
3.005265700865058065005542 0.01840579480960024411073661 1.423671495674658560304238
3.010531401730116130011083 -0.004396136793616702877207647 1.428937196539742160439346
3.005265700865058065005542 -0.02719806839683365506932233 1.423671495674658560304238
2.542503225094776553305564 0.00501935056866029388061845 1.462516125473883876750847
2.535006450189552840157603 -0.01666666666666665602702935 1.470012900379106923764994
2.542503225094776553305564 -0.02831398276467303812276022 1.462516125473883876750847
2.52001290037910585795089 -0.01332043295422744022538097 1.485006450189553461882497
2.512516125473882144802928 -0.03166021647711411007852789 1.492503225094776730941248
2.512516125473882144802928 0.005019350568659227025680725 1.492503225094776730941248
2.527509675284323353849913 -0.03500645018955333281907016 1.462516125473877437457304
2.5125161254738763716432 -0.03500645018955333281907016 1.477509675284323975574807
2.5125161254738763716432 0.03500645018955334669685797 1.477509675284323975574807
2.527509675284322909760704 0.03500645018955334669685797 1.462516125473877437457304
2.589664903736882184404067 0.0004775389647003845791303767 1.460812635227817901650837
2.582690606091965879187455 -0.01442613425453203104820155 1.468264471837434026468827
2.574640980536586187810144 -0.001673116856227357777953113 1.476314097392813495801533
2.573565652626122357560234 0.0004775389647003596424804095 1.476911886338577062360855
2.574596042240980153792407 -0.03157033988589903750199284 1.460169907986448745162988
2.580450073679819489314013 -0.04775946758786537432728281 1.451597805170765642657216
2.566068877720902641215162 -0.01881732248759437203800005 1.46941511143335046263303
2.559049641780381190159233 -0.03381087229803366595026759 1.460722758636601614767869
2.566546416685600906504305 0.01881732248759439632412871 1.4682195335418284365403
2.557974313869917359909323 0.03500645018956071580218392 1.461320547582365181327191
2.588544637530805658798272 0.03157033988589909301314407 1.459692369021750479873845
2.573475776034904072275822 0.0338108722980336867669493 1.4590496417803815454306
2.595518935175721075836464 -0.01666666666666663521034764 1.452240532412134799145065
2.594398668969644550230669 0.009945069430244247304928606 1.451120266206067377368072
2.594398668969644550230669 0.04327840276357759058400987 1.451120266206066933278862
2.557496774905219094620179 0.005019350568667660383859186 1.462516125473887207419921
2.564993549810438810965252 -0.01332043295422637510516672 1.470012900379114029192351
2.557496774905219538709389 -0.03166021647712041753308654 1.462516125473887207419921
3.041901716926452614586651 0.001410301558709944284158988 1.459508584632256189550503
3.033803433852906294987406 -0.01666666666666665602702935 1.467606867705808504354081
3.041901716926453502765071 -0.03192303177462338381609186 1.459508584632256189550503
3.025301183785256142755316 -0.0003378334686339280528918905 1.475639017253890905578828
3.02489721679115186603326 0.0004701005195739234787319361 1.475572883728420769955392
3.024365486188225649044625 -0.02327203212286983735612722 1.463834084458139006557076
3.035766451989874159522742 -0.03380343385290723867697693 1.459038484112688438543159
3.021998501057154840054864 -0.006943198924837102117835208 1.472336334525789158789166
3.021998501057154840054864 0.006943198924837133342857776 1.472336334525789158789166
3.024365486188225649044625 0.02327203212286985470336198 1.463834084458138784512471
3.035766451989873715433532 0.03380343385290724561587083 1.459038484112688216498555
3.026328504325193513579961 -0.01840579480978771914623238 1.455265700865018718701549
3.021062803460124346344173 0.004396136793508222811999175 1.460531401730037481812019
3.026328504325193069490751 0.02719806839680415089244292 1.455265700865018718701549
3.018695818329053537354412 0.0003378334686339594947548925 1.469033651797687634044109
3.021594534063050563332808 -0.006135264936629251236732685 1.47227020100031902316573
3.09211457489496233108639 0.002687449369756991258972878 1.460572874474794335952765
3.084229149789925017444148 -0.0166666666666666664353702 1.468458299579841197513019
3.09211457489496233108639 -0.03064588396357634594857622 1.460572874474794335952765
3.07566076619680650594546 -0.0004701005195707079519287785 1.476130866716376832670221
3.074977807708725308089015 0.0008958164565916103489265354 1.475918008747866716490194
3.076343724684882374731387 -0.03422914978992493834075717 1.460572874474798554800259
3.066879524635176768043721 -0.01803258364282898235098074 1.46781972567431595599885
3.059677058018215323187405 -0.03422914978992493140186326 1.460147158537783429466117
3.06777534109176297505428 0.01803258364282898582042769 1.468245441611334189957461
3.05899409953013412533096 0.03380343385290403984688723 1.459934300569273313286089
3.076343724684881486552968 0.03422914978992494527965107 1.460572874474798554800259
3.058098283073547030141981 0.001410301558706740900420162 1.459508584632254413193664
3.066196566147095570187275 -0.01572646562753063359529904 1.467606867705805395729612
3.058098283073547918320401 -0.03286323281376801047626302 1.459508584632254635238269
3.143405985520488332696232 0.01043591312288308717293184 1.46702992760239436798031
3.136811971040977198299515 -0.01666666666666666990481716 1.473623942081929927283568
3.143405985520488776785442 -0.02289742021045024916725552 1.46702992760239436798031
3.128030729479349680843825 -0.0008958164565876357721824208 1.478926545935937753029066
3.125843502397233741874061 0.003478637707643939674939659 1.477635135310409353337491
3.130217956561449632602034 -0.03681197104097727601512702 1.467029927602402583630692
3.117958077292194651874979 -0.02104112083089824253301359 1.469749710205364934267891
3.113551289894783025147262 -0.03681197104097727601512702 1.46444710635136599030659
3.121436714999822559235554 0.02104112083089824253301359 1.47233253145641040937619
3.111364062812667086177498 0.03422914978992096929344413 1.463155695725837590615015
3.130217956561449632602034 0.03681197104097727601512702 1.467029927602402583630692
3.107885425105039178816924 0.002687449369753016573808546 1.460572874474792559595926
3.115770850210078268816005 -0.01487503375350128845266973 1.468458299579836978665526
3.107885425105038734727714 -0.03243751687675558437184975 1.460572874474792337551321
3.183088168833327458173699 -0.01031781668715704008976175 1.493405985520484424711185
3.176435106135937047611151 0.009827487687145303532632035 1.486811971040969071466975
3.183088168833327458173699 0.02997279206144765062447277 1.493405985520484424711185
3.169841091656421472322336 -0.03681197104096900485359356 1.480217956561437286922001
3.169841091656421472322336 0.03681197104096901179248746 1.480217956561437286922001
3.156594014479515042381763 0.01043591312287482295029228 1.467029927602390149132816
3.163188028959030617670578 -0.009709391251427522406824977 1.473623942081921933677791
3.156594014479515486470973 -0.02985469562572986429449529 1.467029927602390149132816
2.492599848640935089605364 0.005599091845615945806091673 1.512999243204681043550863
2.485199697281870179210728 -0.01666666666666664561868849 1.520399394563743067365635
2.492599848640935089605364 -0.02773424148771738012575483 1.512999243204681043550863
2.470399394563735917529357 -0.01293393876960186733571234 1.535199697281870223619649
2.462999243204666122153412 -0.0314669693848053724782865 1.54259984864093491196968
2.462999243204667010331832 0.005599091845601623929074009 1.54259984864093535605889
2.477799545922795054764265 -0.0351996972818701472918157 1.512999243204668164963778
2.462999243204660793082894 -0.0351996972818701542307096 1.527799545922795321217791
2.462999243204661237172104 0.03519969728187018198628522 1.527799545922795765307001
2.477799545922795498853475 0.03519969728187017504739131 1.512999243204668164963778
2.526862979118178476056755 0.0003797245238977334756691473 1.523516745405717909278565
2.526216282952012281981524 -0.001673116856230070451788672 1.524543166095781998592429
2.524446542549621419482264 -0.00186636394855107428172869 1.526312906498172417002479
2.523323498313397195147445 0.0003797245238977315783153454 1.527056226210499190187875
2.518072811880625039293591 -0.01871950804679447730172193 1.516399695024395199993705
2.511222733141562635239552 -0.03500645018956338727633693 1.507876499429113170691608
2.515923346954339390180166 -0.01891275513911547939693847 1.51965607485142983890114
2.508902920119176815916262 -0.03371305785723108239260171 1.510769284067716711206231
2.516303071478234620883541 0.01891275513911545858025676 1.518169435426785618403756
2.507779875882952591581443 0.03519969728188437896321261 1.511512603780043484391626
2.519366204212949433838276 0.01871950804679445995448717 1.516019970500499969290331
2.510576036975396441164321 0.0337130578572310685148139 1.508902920119176815916262
2.520012900379115627913507 -0.01666666666666667337426411 1.514993549810436102021072
2.512516125473887473873447 -0.02831398276466406266349551 1.507496774905218162032838
2.512516125473887473873447 0.005019350568669265003074464 1.507496774905218162032838
2.507400151359057360878069 0.005599091845630156660806875 1.512999243204687704889011
2.514800302718115165845347 -0.01293393876958757321427029 1.520399394563756612086536
2.507400151359057360878069 -0.03146696938480528227266575 1.512999243204687704889011
3.191945473061958971072727 0.001748173172573415411548692 1.50980270011061490365023
3.18389094612391732042056 -0.01666666666666669419094582 1.517819559648245553162837
3.191945473061958971072727 -0.03158516016075992721701127 1.50980270011061490365023
3.175402835851633742692002 -0.000309553877900399141386012 1.525712389729534379512188
3.174969252517391815615611 0.0005576127905839542864968594 1.525588360273192556348931
3.1785729357170682263245 -0.02046350850084379530136047 1.515325858540162329290979
3.188525883572197905380108 -0.03389094612391733984946285 1.509207419919620152271023
3.173504414934545270199351 -0.004106395712077504263348704 1.523813968812445907019537
3.173504414934545270199351 0.004106395712077437476494879 1.523813968812445907019537
3.1785729357170682263245 0.0204635085008437501985501 1.515325858540162329290979
3.188525883572197905380108 0.03389094612391731209388723 1.509207419919620152271023
3.183207873165349255373258 -0.01007840802311448999417642 1.506713718811536928399164
3.176674514799979753831849 0.009827487687145282715950323 1.513427437623073856798328
3.183207873165349255373258 0.02973338339740507624275878 1.506713718811536928399164
3.1716059940174567977067 0.0003095538779003323003220782 1.521915547895357434526886
3.17307083160030334312296 -0.003239229043593150510205181 1.52368993935610408385628
3.242714240069710207592379 0.006285440418238202528455894 1.513571200348527767687301
3.235428480139420859273969 -0.01666666666666666296592325 1.520856960278829328458983
3.242714240069710207592379 -0.02704789291509512860756104 1.513571200348527767687301
3.226791248367886666414961 -0.0006077968764022728762747017 1.527399045244288489087126
3.225439776526641821874364 0.002095146806087629792747506 1.526655370279445644854377
3.228103495083060270331998 -0.03542848013942095919404096 1.513531975222468739517012
3.217410341631509851367809 -0.0193696103491565740917224 1.518613418698906203374577
3.211436828416394106966436 -0.03542848013942097307182877 1.512032108607388458665355
3.21946626331152607747299 0.0193696103491565740917224 1.520074060187927900145155
3.210085356575149262425839 0.0339411302097356107343451 1.511288433642545614432606
3.228103495083060270331998 0.03542848013942096613293486 1.513531975222468739517012
3.208029434895132148142238 0.001798357258391711233080912 1.509827792153523917662028
3.216058869790264118648793 -0.01547610628467723133117051 1.517869743734063359141828
3.208029434895133036320658 -0.03275056982774617736486888 1.509827792153523917662028
3.286775940769516068939993 -0.005938299300192168179990393 1.542714240069707809510646
3.279316610280195831705896 0.0128235141725571433202191 1.535428480139415796656976
3.286775940769516068939993 0.0315853276453064574225138 1.542714240069707809510646
3.272030850349903818852226 -0.03542848013941598400711186 1.528142720209116456331344
3.272030850349903818852226 0.03542848013941597012932405 1.528142720209116456331344
3.25728575993029156876446 0.006285440418233213463738984 1.513571200348525103152042
3.26457151986058358161813 -0.01247637305451609890383224 1.520856960278824221433069
3.25728575993029156876446 -0.03123818652726540606723304 1.513571200348525103152042
2.477154287336353011284018 0.0005758467756131397698171615 1.573421559439260208890232
2.476509028749886542897229 -0.001866363948546432595387845 1.574642664801340075086955
2.467818360217890472085855 -0.01551497311544630837432113 1.583909180108946657128399
2.45977295027236042557206 -0.03275748655772611761527457 1.591954590054473372973121
2.45977295027236086966127 0.001727540326833499565589713 1.591954590054473372973121
2.468463618804355164115805 -0.01910887739082624270370303 1.566597254855808474260925
2.46170872603174739623455 -0.03519969728187977153766042 1.55797599813466836060627
2.459772950272358649215221 -0.03390918010894647394160017 1.575863770163414834257765
2.459772950272358649215221 0.03390918010894647394160017 1.57586377016341505630237
2.469754135977278330926765 0.01910887739082624270370303 1.566021408080199961432299
2.461063467445280483758552 0.03390918010894647394160017 1.559197103496748670892202
2.470399394563745243402764 -0.01666666666666666990481716 1.564800302718120095235577
2.462999243204671007134721 -0.02773424148772212285973815 1.557400151359060069822249
2.462999243204671007134721 0.005599091845611217817257899 1.557400151359060291866854
3.291883716761287548280279 0.001677711228405164706201091 1.559793994467117972391179
3.283767433522574386017823 -0.01666666666666666990481716 1.567722572375490175389245
3.291883716761287104191069 -0.03165562210492817163398627 1.559793994467117972391179
3.275334286528862381970839 -0.00019962732075774194603901 1.57553391384962049315277
3.275017422773863096097102 0.0004341001892412323657013951 1.575416677415378829962833
3.280941239667210851393975 -0.01847590188328539911877257 1.566196149247598867759734
3.289962140514232746824064 -0.03376743352257456642906419 1.559172188947536064063115
3.274429668920553204713997 -0.002008862537376473762079643 1.574629296241310871806718
3.274429668920552760624787 0.002008862537376475496803119 1.574629296241310871806718
3.280941239667209963215555 0.01847590188328539911877257 1.566196149247598867759734
3.289962140514232746824064 0.03376743352257456642906419 1.559172188947536064063115
3.287135946658868324021796 -0.005218287521487019638144478 1.557645765819644534388999
3.280036622058901230047923 0.012823514172557150259113 1.565291531639289246413682
3.287135946658868324021796 0.03086531586660132275845569 1.557645765819644534388999
3.273525051312243583367945 0.000199627320757743247081617 1.573724678633001694549876
3.27411280516555347475105 -0.001375135027377499992440324 1.574512059807069208616781
3.343456126565908625991597 0.01073675939543079077553855 1.567280632829522790672172
3.336912253131816719076141 -0.01666666666666667684371106 1.573824506263623579371824
3.343456126565908625991597 -0.0225965739379025455646488 1.567280632829522568627567
3.328237213305179409417178 -0.0006834129866086727927987354 1.578920626291787643324938
3.326106046912633118495251 0.003578919798483382562481747 1.577472872885850252444584
3.330099812636206468852151 -0.0369122531318167232394778 1.567012065768013329147834
3.318114420072603820699442 -0.0209289994517587243927359 1.56941963857879462906908
3.31343314596953941730817 -0.0369122531318167301783717 1.564054951489121325636233
3.321424772809568715103978 0.020928999451758717453842 1.572108185796177171056343
3.311301979576993126386242 0.03401674631994200392881567 1.56260719808318393475588
3.330099812636206024762942 0.03691225313181671630058389 1.567012065768013329147834
3.307991626840029120160125 0.001927024025772598736505614 1.559918650865801836857827
3.315983253680057973866724 -0.0154230556275027352874929 1.567971885172857682277936
3.307991626840028676070915 -0.03277313528077806931149141 1.559918650865801836857827
3.382719367170462732019587 -0.01073675939544453152019177 1.593456126565906405545547
3.376175493736371713282551 0.0095088270697014400101299 1.586912253131812722273253
3.382719367170461843841167 0.0297544135348474236835159 1.593456126565906405545547
3.369631620302277585921047 -0.0369122531318126501087562 1.580368379697713487885835
3.369631620302278030010257 0.03691225313181263623096839 1.58036837969771370993044
3.356543873434093772090137 0.01073675939542671417537001 1.567280632829520570226123
3.363087746868187455362431 -0.00950882706971926949801599 1.573824506263619804613541
3.356543873434093772090137 -0.02975441353486524276306113 1.567280632829520570226123
2.475784031975895249644282 0.000416370400560585785139367 1.624632338424665700671312
2.475704293788368204332073 -0.0005758467756147201029037763 1.625128447012753385436667
2.467499407467784955372281 -0.01583392586555096293032818 1.633749703733894165225138
2.459374259334729195813907 -0.03291696293277823065492882 1.641874851866946816159043
2.459374259334729195813907 0.001249111201676327779358511 1.641874851866946816159043
2.467579145655311556595279 -0.0176588838428419908632705 1.617003298879696959744479
2.459613473897308555393693 -0.03390918010894802825383465 1.608461780346083225268217
2.459374259334729195813907 -0.0337497037338939515072056 1.625624555600837739532949
2.459374259334728751724697 0.03374970373389393762941779 1.625624555600837739532949
2.467738622030364759041277 0.01765888384284195616880098 1.61658692847913987300501
2.459533735709781510081484 0.0337497037338939445683117 1.608957888934171132078177
2.467818360217891804353485 -0.01666666666666668378260496 1.61609081989105196619505
2.45977295027236131375048 -0.03160579300649829503910837 1.608045409945526138528749
2.45977295027236131375048 0.001727540326835040000036381 1.608045409945526138528749
3.392501150138440113579463 0.005006900830635784872824079 1.612505750692195594098166
3.385002300276879871887559 -0.01666666666666667684371106 1.62000460055375805623612
3.392501150138440113579463 -0.02832643250269754192638416 1.612505750692195594098166
3.376455398133158425366673 -0.0004271376207767929936154339 1.626882535753935599132092
3.375407345850996776448483 0.001668966943546964544486944 1.6262616210925502358009
3.378799437107380398970236 -0.02191455340870110402029525 1.615711690239196585139325
3.388922230339957764044811 -0.03500230027688031736454732 1.610836783748651246384043
3.373831454762140857894792 -0.005675024362811215833390932 1.624258592382918253704815
3.373831454762140857894792 0.005675024362811171597942295 1.624258592382918253704815
3.378799437107380398970236 0.02191455340870106932582573 1.615711690239196585139325
3.388922230339957764044811 0.03500230027688031042565342 1.610836783748651246384043
3.382719367170457847038278 -0.01073675939545265869967672 1.606543873434089775287248
3.376175493736362831498354 0.009508827069701429601789044 1.613087746868179239712049
3.382719367170457847038278 0.02975441353485554565883042 1.606543873434089775287248
3.371207511391123734512121 0.0004271376207767475655444067 1.621634649011900908277539
3.372783402479979208976602 -0.003578919798487459162650293 1.623637677721532890373624