/*--------------------------------*- C++ -*----------------------------------*\
| =========                 |                                                 |
| \\      /  F ield         | OpenFOAM: The Open Source CFD Toolbox           |
|  \\    /   O peration     | Version:  v2012                                 |
|   \\  /    A nd           | Website:  www.openfoam.com                      |
|    \\/     M anipulation  |                                                 |
\*---------------------------------------------------------------------------*/
FoamFile
{
    version     2.0;
    format      ascii;
    class       volScalarField;
    location    "1.5";
    object      alpha.water;
}
// * * * * * * * * * * * * * * * * * * * * * * * * * * * * * * * * * * * * * //

dimensions      [0 0 0 0 0 0 0];


internalField   nonuniform List<scalar> 
96000
(
0
0
0
0
0
0
0
0
0
0
0
0
0
0
0
0
0
0
0
0
0
0
0
0
0
0
0
0
0
0
0
0
0
0
0
0
0
0
0
0
0
0
0
0
0
0
0
0
0
0
0
0
0
0
0
0
0
0
0
0
0
0
0
0
0
0
0
0
0
0
0
0
0
0
0
0
0
0
0
0
0
0
0
0
0
0
0
0
0
0
0
0
0
0
0
0
0
0
0
0
0
0
0
0
0
0
0
0
0
0
0
0
0
0
0
0
0
0
0
0
0
0
0
0
0
0
0
0
0
0
0
0
0
0
0
0
0
0
0
0
0
0
0
0
0
0
0
0
0
0
0
0
0
0
0
0
0
0
0
0
0
0
0
0
0
0
0
0
0
0
0
0
0
0
0
0
0
0
0
0
0
0
0
0
0
0
0
0
0
0
0
0
0
0
0
0
0
0
0
0
0
0
0
0
0
0
0
0
0
0
0
0
0
0
0
0
0
0
0
0
0
0
0
0
0
0
0
0
0
0
0
0
0
0
0
0
0
0
0
0
0
0
0
0
0
0
0
0
0
0
0
0
0
0
0
0
0
0
0
0
0
0
0
0
0
0
0
0
0
0
0
0
0
0
0
0
0
0
0
0
0
0
0
0
0
0
0
0
0
0
0
0
0
0
0
0
0
0
0
0
0
0
0
0
0
0
0
0
0
0
0
0
0
0
0
0
0
0
0
0
0
0
0
0
0
0
0
0
0
0
0
0
0
0
0
0
0
0
0
0
0
0
0
0
0
0
0
0
0
0
0
0
0
0
0
0
0
0
0
0
0
0
0
0
0
0
0
0
0
0
0
0
0
0
0
0
0
0
0
0
0
0
0
0
0
0
0
0
0
0
0
0
0
0
0
0
0
0
0
0
0
0
0
0
0
0
0
0
0
0
0
0
0
0
0
0
0
0
0
0
0
0
0
0
0
0
0
0
0
0
0
0
0
0
0
0
0
0
0
0
0
0
0
0
0
0
0
0
0
0
0
0
0
0
0
0
0
0
0
0
0
0
0
0
0
0
0
0
0
0
0
0
0
0
0
0
0
0
0
0
0
0
0
0
0
0
0
0
0
0
0
0
0
0
0
0
0
0
0
0
0
0
0
0
0
0
0
0
0
0
0
0
0
0
0
0
0
0
0
0
0
0
0
0
0
0
0
0
0
0
0
0
0
0
0
0
0
0
0
0
0
0
0
0
0
0
0
0
0
0
0
0
0
0
0
0
0
0
0
0
0
0
0
0
0
0
0
0
0
0
0
0
0
0
0
0
0
0
0
0
0
0
0
0
0
0
0
0
0
0
0
0
0
0
0
0
0
0
0
0
0
0
0
0
0
0
0
0
0
0
0
0
0
0
0
0
0
0
0
0
0
0
0
0
0
0
0
0
0
0
0
0
0
0
0
0
0
0
0
0
0
0
0
0
0
0
0
0
0
0
0
0
0
0
0
0
0
0
0
0
0
0
0
0
0
0
0
0
0
0
0
0
0
0
0
0
0
0
0
0
0
0
0
0
0
0
0
0
0
0
0
0
0
0
0
0
0
0
0
0
0
0
0
0
0
0
0
0
0
0
0
0
0
0
0
0
0
0
0
0
0
0
0
0
0
0
0
0
0
0
0
0
0
0
0
0
0
0
0
0
0
0
0
0
0
0
0
0
0
0
0
0
0
0
0
0
0
0
0
0
0
0
0
0
0
0
0
0
0
0
0
0
0
0
0
0
0
0
0
0
0
0
0
0
0
0
0
0
0
0
0
0
0
0
0
0
0
0
0
0
0
0
0
0
0
0
0
0
0
0
0
0
0
0
0
0
0
0
0
0
0
0
0
0
0
0
0
0
0
0
0
0
0
0
0
0
0
0
0
0
0
0
0
0
0
0
0
0
0
0
0
0
0
0
0
0
0
0
0
0
0
0
0
0
0
0
0
0
0
0
0
0
0
0
0
0
0
0
0
0
0
0
0
0
0
0
0
0
0
0
0
0
0
0
0
0
0
0
0
0
0
0
0
0
0
0
0
0
0
0
0
0
0
0
0
0
0
0
0
0
0
0
0
0
0
0
0
0
0
0
0
0
0
0
0
0
0
0
0
0
0
0
0
0
0
0
0
0
0
0
0
0
0
0
0
0
0
0
0
0
0
0
0
0
0
0
0
0
0
0
0
0
0
0
0
0
0
0
0
0
0
0
0
0
0
0
0
0
0
0
0
0
0
0
0
0
0
0
0
0
0
0
0
0
0
0
0
0
0
0
0
0
0
0
0
0
0
0
0
0
0
0
0
0
0
0
0
0
0
0
0
0
0
0
0
0
0
0
0
0
0
0
0
0
0
0
0
0
0
0
0
0
0
0
0
0
0
0
0
0
0
0
0
0
0
0
0
0
0
0
0
0
0
0
0
0
0
0
0
0
0
0
0
0
0
0
0
0
0
0
0
0
0
0
0
0
0
0
0
0
0
0
0
0
0
0
0
0
0
0
0
0
0
0
0
0
0
0
0
0
0
0
0
0
0
0
0
0
0
0
0
0
0
0
0
0
0
0
0
0
0
0
0
0
0
0
0
0
0
0
0
0
0
0
0
0
0
0
0
0
0
0
0
0
0
0
0
0
0
0
0
0
0
0
0
0
0
0
0
0
0
0
0
0
0
0
0
0
0
0
0
0
0
0
0
0
0
0
0
0
0
0
0
0
0
0
0
0
0
0
0
0
0
0
0
0
0
0
0
0
0
0
0
0
0
0
0
0
0
0
0
0
0
0
0
0
0
0
0
0
0
0
0
0
0
0
0
0
0
0
0
0
0
0
0
0
0
0
0
0
0
0
0
0
0
0
0
0
0
0
0
0
0
0
0
0
0
0
0
0
0
0
0
0
0
0
0
0
0
0
0
0
0
0
0
0
0
0
0
0
0
0
0
0
0
0
0
0
0
0
0
0
0
0
0
0
0
0
0
0
0
0
0
0
0
0
0
0
0
0
0
0
0
0
0
0
0
0
0
0
0
0
0
0
0
0
0
0
0
0
0
0
0
0
0
0
0
0
0
0
0
0
0
0
0
0
0
0
0
0
0
0
0
0
0
0
0
0
0
0
0
0
0
0
0
0
0
0
0
0
0
0
0
0
0
0
0
0
0
0
0
0
0
0
0
0
0
0
0
0
0
0
0
0
0
0
0
0
0
0
0
0
0
0
0
0
0
0
0
0
0
0
0
0
0
0
0
0
0
0
0
0
0
0
0
0
0
0
0
0
0
0
0
0
0
0
0
0
0
0
0
0
0
0
0
0
0
0
0
0
0
0
0
0
0
0
0
0
0
0
0
0
0
0
0
0
0
0
0
0
0
0
0
0
0
0
0
0
0
0
0
0
0
0
0
0
0
0
0
0
0
0
0
0
0
0
0
0
0
0
0
0
0
0
0
0
0
0
0
0
0
0
0
0
0
0
0
0
0
0
0
0
0
0
0
0
0
0
0
0
0
0
0
0
0
0
0
0
0
0
0
0
0
0
0
0
0
0
0
0
0
0
0
0
0
0
0
0
0
0
0
0
0
0
0
0
0
0
0
0
0
0
0
0
0
0
0
0
0
0
0
0
0
0
0
0
0
0
0
0
0
0
0
0
0
0
0
0
0
0
0
0
0
0
0
0
0
0
0
0
0
0
0
0
0
0
0
0
0
0
0
0
0
0
0
0
0
0
0
0
0
0
0
0
0
0
0
0
0
0
0
0
0
0
0
0
0
0
0
0
0
0
0
0
0
0
0
0
0
0
0
0
0
0
0
0
0
0
0
0
0
0
0
0
0
0
0
0
0
0
0
0
0
0
0
0
0
0
0
0
0
0
0
0
0
0
0
0
0
0
0
0
0
0
0
0
0
0
0
0
0
0
0
0
0
0
0
0
0
0
0
0
0
0
0
0
0
0
0
0
0
0
0
0
0
0
0
0
0
0
0
0
0
0
0
0
0
0
0
0
0
0
0
0
0
0
0
0
0
0
0
0
0
0
0
0
0
0
0
0
0
0
0
0
0
0
0
0
0
0
0
0
0
0
0
0
0
0
0
0
0
0
0
0
0
0
0
0
0
0
0
0
0
0
0
0
0
0
0
0
0
0
0
0
0
0
0
0
0
0
0
0
0
0
0
0
0
0
0
0
0
0
0
0
0
0
0
0
0
0
0
0
0
0
0
0
0
0
0
0
0
0
0
0
0
0
0
0
0
0
0
0
0
0
0
0
0
0
0
0
0
0
0
0
0
0
0
0
0
0
0
0
0
0
0
0
0
0
0
0
0
0
0
0
0
0
0
0
0
0
0
0
0
0
0
0
0
0
0
0
0
0
0
0
0
0
0
0
0
0
0
0
0
0
0
0
0
0
0
0
0
0
0
0
0
0
0
0
0
0
0
0
0
0
0
0
0
0
0
0
0
0
0
0
0
0
0
0
0
0
0
0
0
0
0
0
0
0
0
0
0
0
0
0
0
0
0
0
0
0
0
0
0
0
0
0
0
-4.49887684737347316487106e-48
-6.345161952373780810455244e-36
-2.066067394548100338486689e-34
-3.353616071998664928789856e-33
-3.618217126479911150556752e-32
-2.919083079989688612543382e-31
-1.878461735741121714466683e-30
-1.00437345301705321417327e-29
-4.589476298248631855814256e-29
-1.829633318650748758741058e-28
-6.464578038579569142363244e-28
-2.049693417250195032686801e-27
-5.890837712963142622354911e-27
-6.353827751313186048170612e-27
-6.829214970062936302168428e-27
-7.313767045971503770445716e-27
-7.803746818774947349509296e-27
-8.294921967674716734670742e-27
-8.782588683311294752996322e-27
-9.261610772338425199395471e-27
-9.726475295497375653331458e-27
-1.017136539251611524294478e-26
-1.05902503886757784599262e-26
-1.097699261555791933467919e-26
-1.132546962712227674711666e-26
-1.162970967517348694999475e-26
-1.188403745764693466949208e-26
-1.20832263097735821453701e-26
-1.22226522204581641658234e-26
-1.22984443782883413942852e-26
-1.230762644061270264073774e-26
-1.224824243160515030618174e-26
-1.211946116265853464706045e-26
-1.192165337238545416769373e-26
-1.165643643051789901366897e-26
-1.132668244685306664418458e-26
-1.093648695609906474543229e-26
-1.049109696873171104191438e-26
-9.99679901649493188835484e-27
-9.460769783576338434791193e-27
-8.890893884610450135321406e-27
-8.295555198794502025753906e-27
-7.683409761700035768219108e-27
-7.063149426075848815785363e-27
-6.443266222278619921631174e-27
-5.831827500617979365638582e-27
-5.236271484511099841810534e-27
-4.663231814059395867777248e-27
-4.118398072282841150140414e-27
-3.606417264643851725216507e-27
-3.130838908927025731873612e-27
-2.694103955671133626815316e-27
-2.297575378897387343465506e-27
-1.941606126707574557232131e-27
-1.625638352897678566184409e-27
-1.348326578864084051892365e-27
-1.107676727782766405064501e-27
-9.011928466313740903085916e-28
-7.260237515605187264880479e-28
-5.791027193625258825209586e-28
-4.572745895978889844416002e-28
-3.574061056435140230518584e-28
-2.764768706986977599163497e-28
-2.116497976556702829273118e-28
-1.603212811584327406446286e-28
-1.201524360021317901497589e-28
-8.90835804308068302378599e-29
-6.533468016992255115747654e-29
-4.739472197526730890068222e-29
-3.400298924544775214578349e-29
-2.412501684940435550864801e-29
-1.692566491854206313004403e-29
-1.174132924337162676867947e-29
-8.098414782004435754053743e-30
-5.342173047679361845951751e-30
-3.377822617060591993603249e-30
-2.051214361339494079520798e-30
-1.198401429995747485868152e-30
-6.746748093639865397858204e-31
-3.665264017851356700537191e-31
-1.923958088386151793308898e-31
-9.769616487477624491065022e-32
-4.804191711117896300502833e-32
-2.290108260631505056298935e-32
-1.059213653360374245753832e-32
-4.757433995514116695938373e-33
-2.076669220404881828281013e-33
-8.816325007090469189342168e-34
-3.642779738007401598497215e-34
-1.465830108997783987320849e-34
-5.747816393454369019709124e-35
-2.197546540796748489982665e-35
-8.19638414329594139732049e-36
-2.983839704471974716983812e-36
-1.060731522450295413584566e-36
-3.683909505548096514490017e-37
-1.25046717850424188666179e-37
-4.150231443179477072894064e-38
-1.347339148731376303178984e-38
-4.280019682260524323337463e-39
-1.330854933396091182804411e-39
-4.052065254959734233477372e-40
-1.208427904209931944803762e-40
-3.530978805619937019923877e-41
-1.011171799383317548898265e-41
-2.838768577191359604149957e-42
-7.814920654469199950287848e-43
-2.110172362183784080275959e-43
-5.590033803711169094013908e-44
-1.453161308337484200073339e-44
-3.707758393622117538212186e-45
-9.287489261884215865245638e-46
-2.284344209824353028177423e-46
-5.518031854547644882344562e-47
-1.309319519494380263346159e-47
-3.05226019815434736722136e-48
-6.991720865366934692106824e-49
-1.573989809750834884997332e-49
-3.482894904933372219518347e-50
-7.576374554912577509095841e-51
-1.620405993376507237505232e-51
-3.407870366366073757773388e-52
-7.048413450858524780516935e-53
-1.433830409860649839744406e-53
-2.869115909709062040314961e-54
-5.64787114169810038963082e-55
-1.093822809405017946600474e-55
-2.084348644183157936288501e-56
-3.908292512175988964427128e-57
-7.211497522182402843161098e-58
-1.309513677390642078031111e-58
-2.340243947948784697284086e-59
-4.116182494772796841685938e-60
-7.125602607451105395459499e-61
-1.214081707135521394119109e-61
-2.035980736430636877745603e-62
-3.360412005840499347224333e-63
-5.458722125556996888520985e-64
-8.72664589480898182515481e-65
-1.372873631584566956998758e-65
-2.1251945068875620428873e-66
-3.23665969958376003744157e-67
-4.849040804553076523108125e-68
-7.144751706004474300015388e-69
-1.035096741930104512185886e-69
-1.474008664642227934848237e-70
-2.062401410180875303693741e-71
-2.833909299670274855034538e-72
-3.821799062724560908297305e-73
-5.054458262718778628726579e-74
-6.548807786091351247645309e-75
-8.301347320994519992633403e-76
-1.027671057074648508882174e-76
-1.239387005249536901461731e-77
-1.451049128484881802443976e-78
-1.640637908928082238153025e-79
-1.776745147373632761744358e-80
-1.817216507512847331649066e-81
-1.708272711980459217093005e-82
-1.384367566809350059437325e-83
-7.69040287346738025212627e-85
2.23014334287928848433453e-86
1.682506610584315255129809e-86
3.700703362298533017455449e-87
6.363274998229990447893551e-88
9.743110813325998868875966e-89
1.389254775312193168511726e-89
1.883561377278312217331032e-90
2.456100201540058009057744e-91
3.101654375222003099718303e-92
3.810591889917617588104508e-93
4.568822414348924035583257e-94
5.358081277390578618992507e-95
6.156554214588863683023105e-96
6.939824096473111943293909e-97
7.682087484894331530760419e-98
8.357558510043732923999106e-99
8.941954142392017631407864e-100
9.41394169055290419348448e-101
9.756428345608348242278103e-102
9.957584344963038309106429e-103
1.001151472645257662969073e-103
9.918527049715255636714629e-105
9.684980083677927097991671e-106
9.322736882796255218095108e-107
8.848280487571826507680503e-108
8.281577880288820995850364e-109
7.644795097381393560037995e-110
6.960972244586906365104517e-111
6.252761769773260797507591e-112
5.541318263483889766249918e-113
4.845405852484594932904997e-114
4.18076309332712629056098e-115
3.559738442631647841323278e-116
2.991184835793618810591548e-117
2.480581940197991770599805e-118
2.030340692193525865615424e-119
1.640237291400518176747622e-120
1.307922588012237002700586e-121
1.029456781822722957944617e-122
7.998271642808992525805012e-124
6.134167216357164491046359e-125
4.644022830379738334543705e-126
3.470712777828298811846782e-127
2.560551304714532783127646e-128
1.864843125111361086311526e-129
1.340748745323167343905151e-130
9.515898822462809661988459e-132
6.667291559596839105202373e-133
4.611530492131103509688414e-134
3.148723042607470109491923e-135
2.122336770619061704168836e-136
1.412148376473272750159496e-137
9.275286860930437595260238e-139
6.013803402821257058230662e-140
3.848920466752248833922584e-141
2.431580136924320433846649e-142
1.516314996366756965419685e-143
9.333228218883961880945743e-145
5.670293679081675905535116e-146
3.400158993531255232078604e-147
2.012337877659881574597363e-148
1.175432771155723608475358e-149
6.776045888529969915218812e-151
3.854980590670837806061668e-152
2.164313967822429907744062e-153
1.199097975336786614458275e-154
6.555544775957649861481422e-156
3.536431306139691232990832e-157
1.882373640240567903361844e-158
9.885797063323789345004598e-160
5.122277710388141810196719e-161
2.61842217738696458152663e-162
1.32044439124996783460714e-163
6.568745737444292740403374e-165
3.22332342061946802254439e-166
1.560130130737040063855383e-167
7.447815003334929716625023e-169
3.506572680092583423897884e-170
1.628158511632955749417056e-171
7.454929262373876379165774e-173
3.365856930093554409426199e-174
1.498388638995445203216062e-175
6.576586223267755793105461e-177
2.845728268213491572544788e-178
1.213869282664414462398868e-179
5.103919165902382994899482e-181
2.115221545546774796757852e-182
8.63960735580832543783542e-184
3.477627695159751281372398e-185
1.379389606551992901935151e-186
5.390988420014103588523787e-188
2.075817492818598025936986e-189
7.874262521206808042488548e-191
2.94232115342640346388005e-192
1.082899296318379161757154e-193
3.92519325109952591893992e-195
1.401086434345147315244314e-196
4.924412271855986268249415e-198
1.704052052857036468732142e-199
5.805001432469846691781193e-201
1.946540743996303274141778e-202
6.424149049919568860657157e-204
2.08644261781059416834732e-205
6.667795580565943507196807e-207
2.096465925781525899395727e-208
6.484345164718601698605542e-210
1.97268906464445683354441e-211
5.90207907334877401138087e-213
1.736373567424000153628544e-214
5.022374399387204141155206e-216
1.428028482076857748007651e-217
3.990787537887195709859157e-219
1.095984227839489273308657e-220
2.957343728449580344369655e-222
7.839289562116001067020886e-224
2.04104353109184289263785e-225
5.218543553469406640601597e-227
1.310044746746959603249526e-228
3.228333293169924152891624e-230
7.807983814758875757727585e-232
1.853009972277294503955365e-233
4.314216366574643940896945e-235
9.851792530654634802631984e-237
2.206065128691083507167189e-238
4.842930782618787422782219e-240
1.042026029900972226512438e-241
2.196943946515016497593473e-243
4.537485434792955402257702e-245
9.178019032446827194902909e-247
1.817595763349903993298326e-248
3.523164043628998197903673e-250
6.682259811786989724570097e-252
1.23974213929753771624568e-253
2.249127387298104698578468e-255
3.988622003234479148100118e-257
6.911992291694767181516248e-259
1.170022309036160590489255e-260
1.93387223006303214453535e-262
3.119817172375668701470045e-264
4.910385392102722428387005e-266
7.536960949739083204321081e-268
1.127643185133836208716057e-269
1.643739953219627874992651e-271
2.333252955409776889087076e-273
3.223506593422259436635205e-275
4.332042273205847538368324e-277
5.659803471324641755845609e-279
7.184368334271331039778181e-281
8.854708897750516783145009e-283
1.058919771555322066631866e-284
1.227843407516444147366262e-286
1.379380970416159376926819e-288
1.500159686869445582406204e-290
1.578091713004014405954142e-292
1.604260093291708317454841e-294
1.574512250173832100832533e-296
1.490387132822334654332715e-298
1.35911526404164761560265e-300
1.192630944693273407599813e-302
1.005771336910961891578728e-304
8.140381558844567552942338e-307
6.314002002199600715043162e-309
4.685853395910506467502622e-311
3.321597803455467094537777e-313
2.244698330063452249088289e-315
1.444647948439804895172287e-317
7.905050333459944706825101e-320
0
0
0
0
0
0
0
0
0
0
0
0
0
0
0
0
0
0
0
0
0
0
0
0
0
0
0
0
0
0
0
0
0
0
0
0
0
0
0
0
0
0
0
0
0
0
0
0
0
0
0
0
0
0
0
0
0
0
0
0
0
0
0
0
0
0
0
0
0
0
0
-1.437854185109340287516858e-33
-4.710686423534810529746846e-32
-7.691488536903809487699082e-31
-8.344912583550344606250031e-30
-6.768003913687148819079265e-29
-4.376685946821606707879228e-28
-2.350687600011336570086259e-27
-1.078534071204568652947672e-26
-4.315265727892896978110393e-26
-1.529488095263412446525629e-25
-4.862231314951265837281964e-25
-1.40033608254364943292398e-24
-3.684104757283098459441165e-24
-8.915655915297670877830961e-24
-9.286034965245901773938142e-24
-9.633872269516568116577038e-24
-9.954535465866541269944031e-24
-1.024343054633354792198014e-23
-1.049609382074367169633734e-23
-1.070828974721878357303924e-23
-1.087611231232909183024946e-23
-1.099608722533050927062991e-23
-1.106527183143216290483975e-23
-1.108134937495316649329341e-23
-1.104271408091609237798635e-23
-1.09485434973814590038427e-23
-1.079885467092758157262744e-23
-1.059454102835741028156847e-23
-1.033738731519213490399081e-23
-1.003006059226054314468658e-23
-9.676076101145311312007736e-24
-9.279737751087013642578394e-24
-8.846054016251588854178967e-24
-8.380631114546327853252191e-24
-7.8895464104353948548443e-24
-7.379205982037840542469747e-24
-6.856191153282149078759948e-24
-6.32709945425822624148403e-24
-5.798385884433779072236247e-24
-5.27621047427006864915345e-24
-4.766297948357423525822903e-24
-4.273814785266597031153615e-24
-3.803268165785798636600697e-24
-3.358430244011209389061879e-24
-2.942289926726899979343519e-24
-2.557032983336859052227773e-24
-2.204049919037354051914533e-24
-1.88396971874139430725239e-24
-1.596716394738468520413355e-24
-1.341584321535902469651254e-24
-1.117327672811246174937266e-24
-9.222589209525715958568034e-25
-7.543513268782559154510556e-25
-6.11340618955604552180283e-25
-4.908215943300586617322156e-25
-3.903361152362571248404292e-25
-3.074498465672056143524857e-25
-2.398160142304734565372012e-25
-1.852253842689245296271495e-25
-1.416425068710379352601711e-25
-1.072289874406746903104334e-25
-8.035510568824991681254517e-26
-5.960148767178777535716471e-26
-4.375274587277484701631065e-26
-3.178505378754537828092227e-26
-2.284953961282431157204769e-26
-1.625320016043359968938298e-26
-1.143878513047849818757045e-26
-7.964815941690349801702913e-27
-5.486611011035905797937706e-27
-3.738913384273334901949985e-27
-2.520472990763543304598279e-27
-1.680734000840737090977097e-27
-1.108621429722805257361188e-27
-6.918526927729731801171741e-28
-4.151234192374665912793847e-28
-2.399303375010034232204715e-28
-1.338017858707399942751536e-28
-7.210370004405906616315182e-29
-3.75973904097291605487113e-29
-1.899291864812804854773436e-29
-9.305495573769136248533891e-30
-4.426265262689791269684598e-30
-2.045894400422837840833363e-30
-9.196873830533187539033504e-31
-4.023845573180815805978799e-31
-1.714715179099513785455867e-31
-7.12153274280597581932261e-32
-2.884331374219953426712565e-32
-1.139847983338440130672755e-32
-4.39745367481119129689997e-33
-1.656971295867673983876383e-33
-6.1007168478858416029952e-34
-2.195731021085837961009646e-34
-7.728206152250175751421855e-35
-2.660959594909592837200716e-35
-8.96617957761360383580903e-36
-2.957518093594743884450778e-36
-9.552827714963656283003697e-37
-3.022372104018050081449304e-37
-9.369060078701329769979324e-38
-2.846368707118329264257686e-38
-8.477016032688484212600034e-39
-2.475462681929479510547477e-39
-7.089760999217786429808322e-40
-1.9918871520348361718207e-40
-5.490955631407428237621028e-41
-1.485489665116970566611726e-41
-3.944706890918567169966588e-42
-1.028406486143489913407363e-42
-2.632680766265902011920237e-43
-6.618966886199466158348092e-44
-1.634606254327153434292079e-44
-3.965851965009031740133274e-45
-9.45424597346629546240955e-46
-2.214870199101612521064311e-46
-5.099902738966137318233753e-47
-1.154320320578842941756627e-47
-2.568606656074467815739638e-48
-5.619906051787121984751027e-49
-1.209125730098356739018967e-49
-2.55842665935847621287001e-50
-5.324503056489564603516896e-51
-1.090015314349089632672846e-51
-2.195197468948538847791039e-52
-4.349499694635503755727658e-53
-8.479379251576618551054745e-54
-1.626593939860719090861426e-54
-3.0705253218343749563462e-55
-5.704129953089891333462984e-56
-1.042870815171049405378017e-56
-1.876520634096786627299933e-57
-3.323312035382663708205682e-58
-5.792853635344915034863414e-59
-9.938513084122848899535657e-60
-1.678247360741809169442522e-60
-2.789255991907716769304179e-61
-4.562510059641683906955557e-62
-7.344794964942577620770164e-63
-1.163547560161954569737371e-63
-1.813739481383908934192818e-64
-2.781616524090640405417475e-65
-4.196447001097518271929736e-66
-6.226460176161084381701279e-67
-9.083788227977818529288223e-68
-1.302638460431022040879495e-68
-1.835454091427356141154896e-69
-2.539892799307306884686209e-70
-3.449646026457894153558437e-71
-4.594986975753849989945201e-72
-5.996685985970020734661808e-73
-7.657529626608904861438203e-74
-9.551228824538752697721459e-75
-1.160873802218882787784518e-75
-1.370234839166933335436772e-76
-1.562835635672506123607139e-77
-1.708961790447636443050284e-78
-1.767983118236872388558985e-79
-1.687187453115905295527782e-80
-1.401287659438757345307167e-81
-8.328813026570221075545287e-83
1.058780857839069785131163e-84
1.510198986075897253070156e-84
3.47806190888747811960277e-85
6.104165736998893434625652e-86
9.47262636544866376884022e-87
1.364882945311541919184273e-87
1.867101728364983176354133e-88
2.454233499122173103940678e-89
3.122414828373179999062927e-90
3.86314516191483345629618e-91
4.663109867622094253828908e-92
5.504340316940041142988346e-93
6.364738799033305596871073e-94
7.218962795997796748723781e-95
8.039627099240881082847953e-96
8.798747618593243815203202e-97
9.46932188044813941696138e-98
1.002692201160092573534197e-98
1.045116927940054149052109e-99
1.07269663023014790041866e-100
1.084538339225819687505127e-101
1.080412694033078244380203e-102
1.060755666360943067906709e-103
1.026626031743687889324049e-104
9.796234280084840842338829e-106
9.217751768972117923732662e-107
8.554023870033096231429992e-108
7.829769992034294339324609e-109
7.069813341752256008418218e-110
6.297804656658692581631939e-111
5.53515611426255083210455e-112
4.800240295305012859847733e-113
4.10787988221882915306418e-114
3.469125828245906109795933e-115
2.891297853411583022784938e-116
2.378243258520924784104841e-117
1.930759152592521763469605e-118
1.547119258444457462206235e-119
1.223648690872160920207837e-120
9.552971280018966235495455e-122
7.361709686910892621913929e-123
5.599967105399358229534955e-124
4.204994024406305304019944e-125
3.116904585803167521909644e-126
2.280675993447311399815383e-127
1.647358372959295120628289e-128
1.17462227527884540418994e-129
8.267878760870393906825087e-131
5.744796556877972185943295e-132
3.940377180227890299299462e-133
2.667966697612226188705766e-134
1.783193095866047679556988e-135
1.176485678944385768082899e-136
7.66194859326944386442806e-138
4.925487923297689818026085e-139
3.125424135594625471372223e-140
1.957535873217509632692104e-141
1.210158096868194014022113e-142
7.384070445010216838098465e-144
4.44692501776494826869323e-145
2.643152095934300834542818e-146
1.55049440784028991467561e-147
8.976158307052519889554102e-149
5.128245711788479336303625e-150
2.891280149105284477150078e-151
1.608565639582418271922932e-152
8.83076114599194391629152e-154
4.783556813196416550267781e-155
2.556696215684883040901039e-156
1.348229719925808257384335e-157
7.014321263902702792652799e-159
3.600178560124524405019163e-160
1.822879355062633058272257e-161
9.104694796856802016597374e-163
4.485632947702063750542176e-164
2.179763853058855036505619e-165
1.044715945634907600676826e-166
4.938157520903429195438794e-168
2.301885099914390605155826e-169
1.058102010433291514351472e-170
4.795887521331916701101563e-172
2.143282804651880912963072e-173
9.443426828218842402063087e-175
4.101938251434389251755207e-176
1.756413516108671778537355e-177
7.413280546476322453258753e-179
3.083947815272488840493893e-180
1.264394087349224944751625e-181
5.108597393328776702804098e-183
2.033895325345702437305128e-184
7.978588881017295948114157e-186
3.083585132498758912970945e-187
1.17402910661900764809345e-188
4.403058157977718017009026e-190
1.62645117082907932813431e-191
5.916922888927355370114499e-193
2.119703223796809448413624e-194
7.47710054557554788731859e-196
2.596712282032325164654749e-197
8.877670041510339212162441e-199
2.987510565904933711275159e-200
9.894742330873145901594241e-202
3.225016611714199610777021e-203
1.034280111563297991406173e-204
3.263381893930697719126273e-206
1.012894638835737684794256e-207
3.092208397605145604031663e-209
9.283699551484818970000088e-211
2.740685296597545095069776e-212
7.95461389351332362222825e-214
2.269525254085686672661446e-215
6.364130123334852066549981e-217
1.753724025491696613107302e-218
4.748205580975285973119665e-220
1.26290150740137715607317e-221
3.299168209337347605504727e-223
8.463603613272879938893357e-225
2.131770187213790269946425e-226
5.270785647655578941187196e-228
1.279007693629133022858763e-229
3.045396483812994190936251e-231
7.11368209194854894326741e-233
1.629779638384618637904382e-234
3.661404868680000776756925e-236
8.063957262156597877513941e-238
1.740699600637142045851514e-239
3.681835323531757159644167e-241
7.628789012427218778163274e-243
1.548029323334440847245601e-244
3.075475918482450245011054e-246
5.980364605272773994514162e-248
1.137870736666728122508219e-249
2.117730786120508235950349e-251
3.854058783711640894596657e-253
6.856258263350217293177558e-255
1.191852985264495684583039e-256
2.023782915030062558193112e-258
3.35539085437915448851571e-260
5.429818235478160210228674e-262
8.572506428050150986171652e-264
1.319835835625875224321275e-265
1.980715550173466392021934e-267
2.896047401030350357473777e-269
4.123366480008512907838884e-271
5.713887385289112804621926e-273
7.70201354750489467466876e-275
1.009292227162611460406859e-276
1.285001662416657818936975e-278
1.588489967689289228398205e-280
1.905302468543391981906872e-282
2.215797996399816920413891e-284
2.496625351863719359089036e-286
2.723229744408911054535176e-288
2.873110874332111903361904e-290
2.929301135187256176391736e-292
2.883368444120585876248956e-294
2.737246059174798543226633e-296
2.503384186857868854506057e-298
2.203076615533825027657857e-300
1.863249291948982541386578e-302
1.512378696836211712189403e-304
1.176414870967449253462224e-306
8.755489573099386820125969e-309
6.224016020648217725416124e-311
4.218077546319308910962749e-313
2.719673279349393026797875e-315
1.664013095193318360786684e-317
9.881312916824930883531376e-320
0
0
0
0
0
0
0
0
0
0
0
0
0
0
0
0
0
0
0
0
0
0
0
0
0
0
0
0
0
0
0
0
0
0
0
0
0
0
0
0
0
0
0
0
0
0
0
0
0
0
0
0
0
0
0
0
0
0
0
0
0
0
0
0
0
0
0
0
0
0
-1.896956297744747604152978e-35
-2.425238100024621207703165e-32
-7.819437808140511860797922e-31
-1.26711481113219426992489e-29
-1.367174667651669093915568e-28
-1.103518446077024568109681e-27
-7.104155551983213626736324e-27
-3.798914681502320474935507e-26
-1.735416697048965600236367e-25
-6.912998813183557299183122e-25
-2.439285825096101175245756e-24
-7.719126565691246960804861e-24
-2.212746359159587975714829e-23
-5.793531943102592610670631e-23
-1.395140110179308117939161e-22
-1.475304189945294626788571e-22
-1.553325349367806086943991e-22
-1.628245107870255645913224e-22
-1.699070932583685826467709e-22
-1.764793822569528650547713e-22
-1.824408231305982769413139e-22
-1.876933955846481350375083e-22
-1.921439495182618495337126e-22
-1.957066258785178209141648e-22
-1.983052896120222676717979e-22
-1.998758926752753403514937e-22
-2.003686786209762776382347e-22
-1.997501372463005371480043e-22
-1.980046188152981003711141e-22
-1.951355229396164458809116e-22
-1.911659875914125774037493e-22
-1.861390189297316509086249e-22
-1.801170223321726939262276e-22
-1.731807185840093022209661e-22
-1.654274555944795482883306e-22
-1.569689539814257336769917e-22
-1.479285528355002969778156e-22
-1.384380482264357259743449e-22
-1.286342397825606657086347e-22
-1.186553182861724944506077e-22
-1.086372382400339509227421e-22
-9.871022270518335109307701e-23
-8.89955428112215886859815e-23
-7.960270120000795653727924e-23
-7.06271279033817736821201e-23
-6.214846999891740359122039e-23
-5.422952458605706577627155e-23
-4.691583032700703423032432e-23
-4.023589837242134250598749e-23
-3.42020313279475076340389e-23
-2.881165120485177950585049e-23
-2.404903583420901361391121e-23
-1.988734925566053615053476e-23
-1.629084571073739560937047e-23
-1.321712898140317545714174e-23
-1.061935817107845695113033e-23
-8.448306336004351586212552e-24
-6.654197957003864131753847e-24
-5.188273209745338793691522e-24
-4.004049451497013807959041e-24
-3.058271571368426282807265e-24
-2.311561442169395378681876e-24
-1.728791669471099646312567e-24
-1.279219613160365265662578e-24
-9.364241536550952328305064e-25
-6.780901652948064022917229e-25
-4.856847115261417536677839e-25
-3.440653449206433897834914e-25
-2.410554136197895434624514e-25
-1.67014762207844438606927e-25
-1.144273960421493620634104e-25
-7.752114005135444932276204e-26
-5.192848807786395616396943e-26
-3.439296405102209559663351e-26
-2.252151040640766005473386e-26
-1.368431486901463039865003e-26
-7.993126843186549820323851e-27
-4.496625801480478145361206e-27
-2.440400654811571599300691e-27
-1.279672627814405652494548e-27
-6.492310073066108579158058e-28
-3.190870562563017910405299e-28
-1.521000591137013352824067e-28
-7.039135993821022336639387e-29
-3.165932630803820544219306e-29
-1.385050222790958214041199e-29
-5.898883596125475351690101e-30
-2.447630675493861607487358e-30
-9.901471791806988013369977e-31
-3.907637958770420450893671e-31
-1.505397559815435686987442e-31
-5.664381514681594042561344e-32
-2.082774722959773849512109e-32
-7.487351422417415714947685e-33
-2.632708101229165921573844e-33
-9.058250897098710088087907e-34
-3.050836882077996979867194e-34
-1.006192071490038412985052e-34
-3.250676269516446784370957e-35
-1.029038216389711510679635e-35
-3.192857235160138604870589e-36
-9.712588906634080853462497e-37
-2.897397605032961293686897e-37
-8.478173144706796559267921e-38
-2.433969440716745824721077e-38
-6.857072867563733988436431e-39
-1.896096497017541511970873e-39
-5.147103070260244965306466e-40
-1.371906985628409089164707e-40
-3.591043588231089602108414e-41
-9.232562000077901537093471e-42
-2.331832935248136305609965e-42
-5.786438464630684459443099e-43
-1.410997245281001608208688e-43
-3.38143794464110431813845e-44
-7.965151386694706474711166e-45
-1.844414157602444982072406e-45
-4.199007905020567822013582e-46
-9.399579897345543810155627e-47
-2.069145592969748022058981e-47
-4.479603226652938632452648e-48
-9.538864061171841366256828e-49