/*--------------------------------*- C++ -*----------------------------------*\
| =========                 |                                                 |
| \\      /  F ield         | OpenFOAM: The Open Source CFD Toolbox           |
|  \\    /   O peration     | Version:  v2012                                 |
|   \\  /    A nd           | Website:  www.openfoam.com                      |
|    \\/     M anipulation  |                                                 |
\*---------------------------------------------------------------------------*/
FoamFile
{
    version     2.0;
    format      ascii;
    class       volScalarField;
    location    "1.3";
    object      alpha.water;
}
// * * * * * * * * * * * * * * * * * * * * * * * * * * * * * * * * * * * * * //

dimensions      [0 0 0 0 0 0 0];


internalField   nonuniform List<scalar> 
96000
(
0
0
0
0
0
0
0
0
0
0
0
0
0
0
0
0
0
0
0
0
0
0
0
0
0
0
0
0
0
0
0
0
0
0
0
0
0
0
0
0
0
0
0
0
0
0
0
0
0
0
0
0
0
0
0
0
0
0
0
0
0
0
0
0
0
0
0
0
0
0
0
0
0
0
0
0
0
0
0
0
0
0
0
0
0
0
0
0
0
0
0
0
0
0
0
0
0
0
0
0
0
0
0
0
0
0
0
0
0
0
0
0
0
0
0
0
0
0
0
0
0
0
0
0
0
0
0
0
0
0
0
0
0
0
0
0
0
0
0
0
0
0
0
0
0
0
0
0
0
0
0
0
0
0
0
0
0
0
0
0
0
0
0
0
0
0
0
0
0
0
0
0
0
0
0
0
0
0
0
0
0
0
0
0
0
0
0
0
0
0
0
0
0
0
0
0
0
0
0
0
0
0
0
0
0
0
0
0
0
0
0
0
0
0
0
0
0
0
0
0
0
0
0
0
0
0
0
0
0
0
0
0
0
0
0
0
0
0
0
0
0
0
0
0
0
0
0
0
0
0
0
0
0
0
0
0
0
0
0
0
0
0
0
0
0
0
0
0
0
0
0
0
0
0
0
0
0
0
0
0
0
0
0
0
0
0
0
0
0
0
0
0
0
0
0
0
0
0
0
0
0
0
0
0
0
0
0
0
0
0
0
0
0
0
0
0
0
0
0
0
0
0
0
0
0
0
0
0
0
0
0
0
0
0
0
0
0
0
0
0
0
0
0
0
0
0
0
0
0
0
0
0
0
0
0
0
0
0
0
0
0
0
0
0
0
0
0
0
0
0
0
0
0
0
0
0
0
0
0
0
0
0
0
0
0
0
0
0
0
0
0
0
0
0
0
0
0
0
0
0
0
0
0
0
0
0
0
0
0
0
0
0
0
0
0
0
0
0
0
0
0
0
0
0
0
0
0
0
0
0
0
0
0
0
0
0
0
0
0
0
0
0
0
0
0
0
0
0
0
0
0
0
0
0
0
0
0
0
0
0
0
0
0
0
0
0
0
0
0
0
0
0
0
0
0
0
0
0
0
0
0
0
0
0
0
0
0
0
0
0
0
0
0
0
0
0
0
0
0
0
0
0
0
0
0
0
0
0
0
0
0
0
0
0
0
0
0
0
0
0
0
0
0
0
0
0
0
0
0
0
0
0
0
0
0
0
0
0
0
0
0
0
0
0
0
0
0
0
0
0
0
0
0
0
0
0
0
0
0
0
0
0
0
0
0
0
0
0
0
0
0
0
0
0
0
0
0
0
0
0
0
0
0
0
0
0
0
0
0
0
0
0
0
0
0
0
0
0
0
0
0
0
0
0
0
0
0
0
0
0
0
0
0
0
0
0
0
0
0
0
0
0
0
0
0
0
0
0
0
0
0
0
0
0
0
0
0
0
0
0
0
0
0
0
0
0
0
0
0
0
0
0
0
0
0
0
0
0
0
0
0
0
0
0
0
0
0
0
0
0
0
0
0
0
0
0
0
0
0
0
0
0
0
0
0
0
0
0
0
0
0
0
0
0
0
0
0
0
0
0
0
0
0
0
0
0
0
0
0
0
0
0
0
0
0
0
0
0
0
0
0
0
0
0
0
0
0
0
0
0
0
0
0
0
0
0
0
0
0
0
0
0
0
0
0
0
0
0
0
0
0
0
0
0
0
0
0
0
0
0
0
0
0
0
0
0
0
0
0
0
0
0
0
0
0
0
0
0
0
0
0
0
0
0
0
0
0
0
0
0
0
0
0
0
0
0
0
0
0
0
0
0
0
0
0
0
0
0
0
0
0
0
0
0
0
0
0
0
0
0
0
0
0
0
0
0
0
0
0
0
0
0
0
0
0
0
0
0
0
0
0
0
0
0
0
0
0
0
0
0
0
0
0
0
0
0
0
0
0
0
0
0
0
0
0
0
0
0
0
0
0
0
0
0
0
0
0
0
0
0
0
0
0
0
0
0
0
0
0
0
0
0
0
0
0
0
0
0
0
0
0
0
0
0
0
0
0
0
0
0
0
0
0
0
0
0
0
0
0
0
0
0
0
0
0
0
0
0
0
0
0
0
0
0
0
0
0
0
0
0
0
0
0
0
0
0
0
0
0
0
0
0
0
0
0
0
0
0
0
0
0
0
0
0
0
0
0
0
0
0
0
0
0
0
0
0
0
0
0
0
0
0
0
0
0
0
0
0
0
0
0
0
0
0
0
0
0
0
0
0
0
0
0
0
0
0
0
0
0
0
0
0
0
0
0
0
0
0
0
0
0
0
0
0
0
0
0
0
0
0
0
0
0
0
0
0
0
0
0
0
0
0
0
0
0
0
0
0
0
0
0
0
0
0
0
0
0
0
0
0
0
0
0
0
0
0
0
0
0
0
0
0
0
0
0
0
0
0
0
0
0
0
0
0
0
0
0
0
0
0
0
0
0
0
0
0
0
0
0
0
0
0
0
0
0
0
0
0
0
0
0
0
0
0
0
0
0
0
0
0
0
0
0
0
0
0
0
0
0
0
0
0
0
0
0
0
0
0
0
0
0
0
0
0
0
0
0
0
0
0
0
0
0
0
0
0
0
0
0
0
0
0
0
0
0
0
0
0
0
0
0
0
0
0
0
0
0
0
0
0
0
0
0
0
0
0
0
0
0
0
0
0
0
0
0
0
0
0
0
0
0
0
0
0
0
0
0
0
0
0
0
0
0
0
0
0
0
0
0
0
0
0
0
0
0
0
0
0
0
0
0
0
0
0
0
0
0
0
0
0
0
0
0
0
0
0
0
0
0
0
0
0
0
0
0
0
0
0
0
0
0
0
0
0
0
0
0
0
0
0
0
0
0
0
0
0
0
0
0
0
0
0
0
0
0
0
0
0
0
0
0
0
0
0
0
0
0
0
0
0
0
0
0
0
0
0
0
0
0
0
0
0
0
0
0
0
0
0
0
0
0
0
0
0
0
0
0
0
0
0
0
0
0
0
0
0
0
0
0
0
0
0
0
0
0
0
0
0
0
0
0
0
0
0
0
0
0
0
0
0
0
0
0
0
0
0
0
0
0
0
0
0
0
0
0
0
0
0
0
0
0
0
0
0
0
0
0
0
0
0
0
0
0
0
0
0
0
0
0
0
0
0
0
0
0
0
0
0
0
0
0
0
0
0
0
0
0
0
0
0
0
0
0
0
0
0
0
0
0
0
0
0
0
0
0
0
0
0
0
0
0
0
0
0
0
0
0
0
0
0
0
0
0
0
0
0
0
0
0
0
0
0
0
0
0
0
0
0
0
0
0
0
0
0
0
0
0
0
0
0
0
0
0
0
0
0
0
0
0
0
0
0
0
0
0
0
0
0
0
0
0
0
0
0
0
0
0
0
0
0
0
0
0
0
0
0
0
0
0
0
0
0
0
0
0
0
0
0
0
0
0
0
0
0
0
0
0
0
0
0
0
0
0
0
0
0
0
0
0
0
0
0
0
0
0
0
0
0
0
0
0
0
0
0
0
0
0
0
0
0
0
0
0
0
0
0
0
0
0
0
0
0
0
0
0
0
0
0
0
0
0
0
0
0
0
0
0
0
0
0
0
0
0
0
0
0
0
0
0
0
0
0
0
0
0
0
0
0
0
0
0
0
0
0
0
0
0
0
0
0
0
0
0
0
0
0
0
0
0
0
0
0
0
0
0
0
0
0
0
0
0
0
0
0
0
0
0
0
0
0
0
0
0
0
0
0
0
0
0
0
0
0
0
0
0
0
0
0
0
0
0
0
0
0
0
0
0
0
0
0
0
0
0
0
0
0
0
0
0
0
0
0
0
0
0
0
0
0
0
0
0
0
0
0
0
0
0
0
0
0
0
0
0
0
0
0
0
0
0
0
0
0
0
0
0
0
0
0
0
0
0
0
0
0
0
0
0
0
0
0
0
0
0
0
0
0
0
0
0
0
0
0
0
0
0
0
0
0
0
0
0
0
0
0
0
0
0
0
0
0
0
0
0
0
0
0
0
0
0
0
0
0
0
0
0
0
0
0
0
0
0
0
0
0
0
0
0
0
0
0
0
0
0
0
0
0
0
0
0
0
0
0
0
0
0
0
0
0
0
0
0
0
0
0
0
0
0
0
0
0
0
0
0
0
0
0
0
0
0
0
0
0
0
0
0
0
0
0
0
0
0
0
0
0
0
0
0
0
0
0
0
0
0
0
0
0
0
0
0
0
0
0
0
0
0
0
0
0
0
0
0
0
0
0
0
0
0
0
0
0
0
0
0
0
0
0
0
0
0
0
0
0
0
0
0
0
0
0
0
0
0
0
0
0
0
0
0
0
0
0
0
0
0
0
0
0
0
0
0
0
0
0
0
0
0
0
0
0
0
0
0
0
0
0
0
0
0
0
0
0
0
0
0
0
0
0
0
0
0
0
0
0
0
0
0
0
0
0
0
0
0
0
0
0
0
0
0
0
0
0
0
0
0
0
0
0
0
0
0
0
0
0
0
0
0
0
0
-2.123264833907663123082856e-45
-3.855282139365286177633944e-33
-1.079088620806268468363554e-31
-1.504894727691524056101714e-30
-1.394290166460195249644883e-29
-9.655175523705115534836165e-29
-5.330449861099019223407074e-28
-2.443992595951842280263786e-27
-9.572132465299308739273227e-27
-3.269267115321631917636182e-26
-9.891656465279697716198317e-26
-2.684500899154213439367208e-25
-6.600884315041650009880479e-25
-6.893446755590541457678303e-25
-7.166340599841092850891796e-25
-7.415255398086502739897259e-25
-7.635922555125956306407533e-25
-7.824216682059245426840178e-25
-7.976264019698520704480597e-25
-8.08855489455880001805871e-25
-8.158056559833124887641043e-25
-8.18232225656510830912924e-25
-8.159591951535631406079554e-25
-8.08888001498911573882828e-25
-7.970045135835740945711216e-25
-7.803838068576909404138186e-25
-7.591923386121753013652705e-25
-7.336872279886895802099648e-25
-7.042124586235396059385345e-25
-6.711919586348733140812442e-25
-6.351196661218895502987526e-25
-5.965468498683800571913787e-25
-5.560671141532377042400262e-25
-5.142996619801542354571022e-25
-4.7187151095729458324869e-25
-4.293994396590350051473848e-25
-3.874724807585497012233636e-25
-3.466357647717607030939797e-25
-3.07376453075496346686476e-25
-2.701123835952238750138022e-25
-2.351838943877001568493233e-25
-2.02849100581002323731945e-25
-1.73282693283389512359568e-25
-1.465781214795410013320633e-25
-1.227528261498158891145767e-25
-1.01756034915359800394191e-25
-8.347850737768882283449056e-26
-6.776355361594006596383003e-26
-5.441863363207892554766389e-26
-4.322688137751308378518662e-26
-3.395797623894456085018114e-26
-2.637789684402665858886055e-26
-2.025722397070443619611783e-26
-1.537779784118232624271118e-26
-1.153766771298460241311174e-26
-8.554388166810205607417621e-27
-6.266809546779069289776029e-27
-4.535575702347345324444228e-27
-3.242579847263029568594458e-27
-2.289641120854575643381277e-27
-1.596654512851981609661513e-27
-1.099440624085553545102468e-27
-7.474851092744542600134514e-28
-5.017161026726249502543998e-28
-3.324261521402602857909531e-28
-2.174067401655850241665228e-28
-1.403306801259489370745164e-28
-8.939171328152957260075568e-29
-5.619169759620473490211826e-29
-3.48533552015289365116356e-29
-2.132965711274442320252351e-29
-1.287838101569988152409163e-29
-7.670964970852183715827592e-30
-3.956247321247371203774939e-30
-1.958683622691951736358861e-30
-9.324839755957265009188631e-31
-4.275502631637876504413038e-31
-1.890642056980871042340415e-31
-8.07346074860821594706338e-32
-3.333052977587840117615074e-32
-1.331737064466070330572041e-32
-5.154818343705514828142447e-33
-1.934724027612515888919413e-33
-7.046908152824942766668203e-34
-2.492810752068622912264976e-34
-8.570476684497888415435971e-35
-2.86575072428857723201345e-35
-9.325310446764270465292264e-36
-2.954853363052222663467189e-36
-9.122139295881409598949587e-37
-2.745183507863545199219224e-37
-8.056980498776805806624851e-38
-2.307275182063142661207874e-38
-6.449721972141585224328663e-39
-1.760656921653880498828988e-39
-4.695352745148367689157353e-40
-1.22371320295766676210552e-40
-3.117872457829085208615641e-41
-7.76864565176489021256973e-42
-1.893536201589569421757767e-42
-4.516154276927614590365941e-43
-1.054263317060587541246049e-43
-2.409494697988579019696817e-44
-5.39267319645349381182661e-45
-1.182174743185603481501501e-45
-2.538928979636792601807612e-46
-5.34313746552273034027794e-47
-1.10204289996086614412128e-47
-2.228077469357366267356415e-48
-4.416302109159941894075285e-49
-8.583111009252269049377865e-50
-1.635846121796533406922178e-50
-3.057732748536399312255133e-51
-5.60604420274501823636728e-52
-1.008199617377140897318636e-52
-1.778666975062240327023701e-53
-3.078344510078150632904125e-54
-5.226621111321215399930238e-55
-8.705666641209279847385046e-56
-1.422473192428785085702872e-56
-2.279906411241289006422622e-57
-3.584052255788206628667659e-58
-5.525228413501565576397843e-59
-8.351331919704043633727076e-60
-1.237295890587190482698943e-60
-1.796186003274896365586182e-61
-2.553831253957913161553727e-62
-3.554204219794892695993028e-63
-4.838078442132714802323558e-64
-6.435077083932418923681831e-65
-8.352473398107312226403693e-66
-1.056057714860159241787708e-66
-1.297498099212943674163129e-67
-1.543654334350190202812148e-68
-1.769071395873773098652788e-69
-1.936858993498770720468982e-70
-1.997280687344208573619558e-71
-1.887187370916328096429731e-72
-1.530668682702924625691059e-73
-8.412559525945031168495335e-75
2.740925830839818373973726e-76
1.90916136525047936211925e-76
4.150962687736069676480183e-77
7.070956636829998693772624e-78
1.071568540750663512733069e-78
1.509772368657901803969294e-79
2.0187988078138351731883e-80
2.591047202751448117766676e-81
3.214035451572359893781835e-82
3.870616670998572631828339e-83
4.539630981784753456097925e-84
5.196974163603275944894749e-85
5.817014901862632995333286e-86
6.374246865094494803039311e-87
6.845027745790861754109597e-88
7.209240170628041424259087e-89
7.451712202507152608668545e-90
7.563258222894445043541448e-91
7.54124143708640595405884e-92
7.389611594711482649546816e-93
7.118428542039684407056164e-94
6.742936167740816084919682e-95
6.282295141174546324651439e-96
5.758111353777270537662522e-97
5.192907470751721221608934e-98
4.608677566260178365462374e-99
4.025642066181714781658557e-100
3.461286662249075175593479e-101
2.929729992740651185833172e-102
2.441426257086709858389493e-103
2.00317530108516649903744e-104
1.618387444783095553565577e-105
1.287535125033132642925005e-106
1.008718347295125152418162e-107
7.782746877289836651507717e-109
5.913749467054563922880271e-110
4.425599066831591879544805e-111
3.261894183101242348093764e-112
2.367900581848336682439444e-113
1.693003129238851219857995e-114
1.192217711666108716294196e-115
8.269090149362193252206247e-117
5.648891052450118055258326e-118
3.800748860809390842936502e-119
2.518669263888471303545702e-120
1.643852953695929640077383e-121
1.05666407507495306199889e-122
6.689348997911332838328618e-124
4.170547021849000797352516e-125
2.560662485826456679635056e-126
1.548275743982137835177366e-127
9.218623536504852249689656e-129
5.404922356410587273005553e-130
3.120333015243184166886099e-131
1.773706434240027956176546e-132
9.926856961462819227550029e-134
5.469777502160938827627491e-135
2.96710429453847634229743e-136
1.584445620040461765039437e-137
8.328716858566724150896189e-139
4.309319440330003290458605e-140
2.19452958431785899374533e-141
1.09988532856330747128293e-142
5.424957868570858210334657e-144
2.633036024420550689868346e-145
1.257464904424553775391897e-146
5.908529783333786133881354e-148
2.731316124307794775499072e-149
1.242042978091420207589393e-150
5.555653314763460682300623e-152
2.444149873908856864523962e-153
1.05748348100424206583003e-154
4.499143202546045051242917e-156
1.882142054870603877340441e-157
7.740975334907234962211015e-159
3.129770045155089076859515e-160
1.243809204905180405180641e-161
4.858130209512652329415949e-163
1.864688606812479482082014e-164
7.032524090540950537208479e-166
2.605721640948666114868479e-167
9.484161522347039213284484e-169
3.39050428941397691372592e-170
1.190316301622031359574872e-171
4.103263457440772722446441e-173
1.388671165328168064717181e-174
4.613220895750065521593345e-176
1.504088559584558925956449e-177
4.812092792833958790491162e-179
1.510464812780582732376786e-180
4.650774413897682111287886e-182
1.404420907150655685732812e-183
4.158561604962204045720856e-185
1.20719212565373299047993e-186
3.434848196204317814453336e-188
9.577317953057216212262254e-190
2.616311386171405243837758e-191
7.000750462761425782298725e-193
1.834451450322550634861117e-194
4.706166548010374864344656e-196
1.181725967510683743757976e-197
2.903617711089488302846094e-199
6.979359867990138003413141e-201
1.640668771532333930943978e-202
3.770736288538225625893413e-204
8.47026376335569412366817e-206
1.859059882087436653904467e-207
3.98538134152674380562161e-209
8.342087677960700379600481e-211
1.704314902246817057888961e-212
3.397271008993501180064229e-214
6.604555570977686955753067e-216
1.251728551541509574028448e-217
2.311754907246766178959863e-219
4.158547684838144629728103e-221
7.282889979416340034093857e-223
1.241114762022476659212325e-224
2.057025111444292786408618e-226
3.313970545495080119244921e-228
5.18667218130325297601855e-230
7.881277365893788956910756e-232
1.161968777174306867273602e-233
1.661075661892057314000065e-235
2.30076362922363515139822e-237
3.085423611016860568621598e-239
4.002864362286540868360298e-241
5.019634108923981259463359e-243
6.078927947379553735632409e-245
7.102625413561763771907368e-247
7.998400546133249434369298e-249
8.67170167062249442169789e-251
9.04093019894271450882411e-253
9.052791727801573210061067e-255
8.694080890745884182075301e-257
7.996516493245890293230194e-259
7.032758874262705126683032e-261
5.904060448689561087148175e-263
4.722384261681556312569123e-265
3.591418823668275838217407e-267
2.591110881939850213712156e-269
1.769053325727726202932797e-271
1.139811262592991529535474e-273
6.909177151018215102652798e-276
3.926652128037170439599469e-278
2.08414586719340597706291e-280
1.028526489479051140351921e-282
4.695367910187079998417826e-285
1.971149782848581528716292e-287
7.556931275182611385438451e-290
2.62391305674374858610949e-292
8.16907859578979377431359e-295
2.252307291538384422772747e-297
5.41352283296285915855294e-300
1.111172349197904021701761e-302
1.893667392160757129324645e-305
2.572314940890992477822994e-308
2.611079423101024314780465e-311
1.760535736027447650643195e-314
5.909025124261308668351763e-318
0
0
0
0
0
0
0
0
0
0
0
0
0
0
0
0
0
0
0
0
0
0
0
0
0
0
0
0
0
0
0
0
0
0
0
0
0
0
0
0
0
0
0
0
0
0
0
0
0
0
0
0
0
0
0
0
0
0
0
0
0
0
0
0
0
0
0
0
0
0
0
0
0
0
0
0
0
0
0
0
0
0
0
0
0
0
0
0
0
0
0
0
0
0
0
0
0
0
0
0
-8.736315322596706202255991e-31
-2.462810249600056644634053e-29
-3.457974021040039370688246e-28
-3.22421415384441133672932e-27
-2.245818226656748875394833e-26
-1.24648628610301578725687e-25
-5.742176530183810698427639e-25
-2.258196422510715502238198e-24
-7.738982416673873204520653e-24
-2.347842111456911620922098e-23
-6.384088326767947492559342e-23
-1.57154328392193929566936e-22
-3.531374388417200722111909e-22
-7.294015828599556729107705e-22
-7.317721404187999603758649e-22
-7.304306818417996370640846e-22
-7.252946334016708546008924e-22
-7.163394967133659479100533e-22
-7.036023261893849263699188e-22
-6.871836833344716151199252e-22
-6.672478821939640581407617e-22
-6.440213950509108368086144e-22
-6.177893545072668888050685e-22
-5.888901650267352269191209e-22
-5.577083205300974433399609e-22
-5.246656105131069966228749e-22
-4.902109805128898299525312e-22
-4.548093882881514370956046e-22
-4.18930059463801455814453e-22
-3.830345906566104240246717e-22
-3.475653700974316198018683e-22
-3.129347825950718649718373e-22
-2.79515636061237459515537e-22
-2.476331913268726633836148e-22
-2.175590982103837916233712e-22
-1.895074432542900398033599e-22
-1.636330043982762255671981e-22
-1.400316924899576261971878e-22
-1.187430469535556032651811e-22
-9.975455106276347279417901e-23
-8.300744821131393034999911e-23
-6.840367997766027072391153e-23
-5.581353325823615097556376e-23
-4.508357856856003647758813e-23
-3.604450362251083036605205e-23
-2.851849208176966102887222e-23
-2.23258616664553321619927e-23
-1.729075214834397937734467e-23
-1.324573510375653161558062e-23
-1.003529688864527908852095e-23
-7.518218184066823485008615e-24
-5.568933087951618447520406e-24
-4.077995215211903171296735e-24
-2.951806485542039506577576e-24
-2.111776729305071332247869e-24
-1.493080764592683873690044e-24
-1.043166963238126758351401e-24
-7.201507882219182741399197e-25
-4.912016714444050854793581e-25
-3.310049426301035842846172e-25
-2.203548123278027859753186e-25
-1.449114759254612532522356e-25
-9.413636059372155643464611e-26
-6.040485899109687787205944e-26
-3.82855325730334387021648e-26
-2.396829505287386549250994e-26
-1.482084640590103333101553e-26
-9.051868865925953301212774e-27
-5.460478478252850344753815e-27
-3.253491318765803254548144e-27
-1.914677096187641219118082e-27
-1.112934356248280169043906e-27
-6.389593494238919012241286e-28
-3.62333217100494204304006e-28
-1.714251918067471220557524e-28
-7.830170588799576144254127e-29
-3.457700002805574491189397e-29
-1.477906566279388634845411e-29
-6.120940284212592529448916e-30
-2.458783714723037254843971e-30
-9.588072244791961210954555e-31
-3.632392068466461953394671e-31
-1.33787340666906166834906e-31
-4.7938182653027525460604e-32
-1.672061367984136451513536e-32
-5.680235928101504654904328e-33
-1.880379972183985504405258e-33
-6.068702856229381024745756e-34
-1.910334067856886666424062e-34
-5.867673818178609007604786e-35
-1.759280027371064724904209e-35
-5.150813271332609117328188e-36
-1.473123491883057803478187e-36
-4.11687547614291948540296e-37
-1.124597007809484692395667e-37
-3.003691684269992744414118e-38
-7.846307435411617453988039e-39
-2.005133053697499262723653e-39
-5.014177679533316562515406e-40
-1.227270394948201563001811e-40
-2.940796758287814378273647e-41
-6.900318979797495887834501e-42
-1.585780328084763350017684e-42
-3.570031761456264240643546e-43
-7.874755222388244219780364e-44
-1.702213245985162899280468e-44
-3.606400982551799125750306e-45
-7.490030860110506440733804e-46
-1.525120762559321673182064e-46
-3.045035207959811862513545e-47
-5.962097058827176739803061e-48
-1.144906683360397588738512e-48
-2.156479567954448611101169e-49
-3.984359347587263805546751e-50
-7.221651947970600035215606e-51
-1.28410112584849303218655e-51
-2.240052553990568283464458e-52
-3.833683226420786700510782e-53
-6.436738961092923838408118e-54
-1.060201199408339908345984e-54
-1.712975339017658564672476e-55
-2.714603437105505597695645e-56
-4.218786770067245326857742e-57
-6.428441093914743143183248e-58
-9.601614870430064750167462e-59
-1.405248016211408314485007e-59
-2.014365738443430576341126e-60
-2.826516594534958562526456e-61
-3.879458950444862961048274e-62
-5.203290213842285570702932e-63
-6.811116305826176555238452e-64
-8.686529251639526851142207e-65
-1.076796500174620860530182e-65
-1.293052316612642919656517e-66
-1.49664793503289729525946e-67
-1.656645404147062736864418e-68
-1.730392483708376904573653e-69
-1.662635087772762642950148e-70
-1.385646674807226384887787e-71
-8.207145334562213621702846e-73
1.187496284814916501618987e-74
1.522342330916467462414109e-74
3.47610517882917998266907e-75
6.054563432236529029022488e-76
9.311916477263675730909831e-77
1.327316306141464092148391e-77
1.792611611254521835324401e-78
2.321533456959517599725792e-79
2.903894384957100070920007e-80
3.524911979824895340820389e-81
4.165668200034188365134994e-82
4.803981269344136416270032e-83
5.415643877475618687133947e-84
5.975935119212615262291307e-85
6.46127562091416057849565e-86
6.850871623173231308968199e-87
7.128188481476852853951852e-88
7.282108526126159532834174e-89
7.307660919866058478840149e-90
7.206257723758101995793733e-91
6.985424413710491402007898e-92
6.658067158715935259574487e-93
6.241366066427083437219475e-94
5.755417467677622796296195e-95
5.2217655088580867664244e-96
4.661962854206279138711056e-97
4.096283769899818458603709e-98
3.54268398527880899509246e-99
3.016065550589309004265342e-100
2.527866892440911463774332e-101
2.085963399229717157101199e-102
1.694835992087655970151457e-103
1.355946548520016852458658e-104
1.068250406972346602519879e-105
8.28776704528207527509378e-107
6.33215134421167160824307e-108
4.764604132412424018537226e-109
3.530807601417484842691958e-110
2.576917244471681999408026e-111
1.852299988622325294899514e-112
1.311323190830326965314288e-113
9.143171505599292282108257e-115
6.278732115194670429853328e-116
4.246513123078981471561942e-117
2.82861715339615174208864e-118
1.855629085496812984916585e-119
1.198880819338709578517254e-120
7.628158568142713444714801e-122
4.77982301786667811185215e-123
2.949445911183101837380824e-124
1.792223991323815762754484e-125
1.07238990152185184104819e-126
6.318379836254536342084771e-128
3.665506708752652854105445e-129
2.093721758494409387854493e-130
1.177445112601573560926191e-131
6.518954562599526793271893e-133
3.553107639341677220045313e-134
1.906374351784162165357786e-135
1.006821402757574895296791e-136
5.233772911725769459564742e-138
2.677737351353231600965113e-139
1.348288866175078316215893e-140
6.680819041152369541098671e-142
3.257443391423470684214821e-143
1.562758111773439241515913e-144
7.376330052947667615793876e-146
3.425210327198732970410045e-147
1.564572650726213572337951e-148
7.02955247815282503391596e-150
3.106300898935888525163295e-151
1.349902088582875941414494e-152
5.768480635599929894333789e-154
2.423689823782259165189777e-155
1.001160089396425206888065e-156
4.065311003320380869649248e-158
1.622553476580739233403098e-159
6.36456641885017719895164e-161
2.453302075501817116782781e-162
9.291625433218902101055895e-164
3.457284050281451334977805e-165
1.263640338688097888472255e-166
4.53625386380693906893215e-168
1.5991715680258501741232e-169
5.535449740405717909154553e-171
1.88107042675188699593932e-172
6.274561852561777643903474e-174
2.054080951368201975078286e-175
6.598340108096484696399961e-177
2.079502862924141870872261e-178
6.428566256497509177605867e-180
1.949027164034921181365254e-181
5.794118851889043564488123e-183
1.688636940153393202304998e-184
4.823642664707661913223943e-186
1.350241049685826361912771e-187
3.702958667407323799247487e-189
9.946913636478372659851384e-191
2.616535589372614920588317e-192
6.738400521156572086257749e-194
1.698509242114345427407337e-195
4.189331725287417192685226e-197
1.010805798873786538967228e-198
2.385132840433339324258815e-200
5.50237421708765774616503e-202
1.240640746968205783765147e-203
2.733131541776135201613138e-205
5.880957705595984094487694e-207
1.2355404612480451734808e-208
2.533548402580302000978987e-210
5.068738116144010249991528e-212
9.890010855749618669793695e-214
1.881222261850333694443305e-215
3.486918930934862784405967e-217
6.295137868608145369628857e-219
1.106430783121261176577076e-220
1.892269027590065832713836e-222
3.147418724744028595814984e-224
5.088633487769141960453462e-226
7.992314817329573083800555e-228
1.21872398988753491694678e-229
1.803108801562416110058888e-231
2.586600922676694100092086e-233
3.595161596147772575456479e-235
4.837951612640928024399829e-237
6.298133515597853084373979e-239
7.925037444814253641207814e-241
9.630272606657533977456673e-243
1.129033732888404098690604e-244
1.275738671298131430970904e-246
1.387802456280849672111931e-248
1.451761993490060390248876e-250
1.458539156098199801491801e-252
1.405422217810542597859452e-254
1.296957989863706231129818e-256
1.144424462914377575490795e-258
9.639244027118526421167028e-261
7.735328431116348486829915e-263
5.902055181983649214531107e-265
4.272061978257506688394009e-267
2.926182468461172721186453e-269
1.891459264033785957998783e-271
1.150240402310550739716998e-273
6.558094477164492300243398e-276
3.491974386379759511013132e-278
1.728784648876373144053554e-280
7.917213167228361373267791e-283
3.334221771357979435438391e-285
1.282293261449322503687193e-287
4.466355396316093305045692e-290
1.394870255374959444870269e-292
3.857804968239536384478343e-295
9.301211103399566945196226e-298
1.915062296827652517130628e-300
3.273725136826885102062686e-303
4.460615559200015200766967e-306
4.541695572471269503383758e-309
3.071605309927370585501396e-312
1.034929189656575961017542e-315
0
0
0
0
0
0
0
0
0
0
0
0
0
0
0
0
0
0
0
0
0
0
0
0
0
0
0
0
0
0
0
0
0
0
0
0
0
0
0
0
0
0
0
0
0
0
0
0
0
0
0
0
0
0
0
0
0
0
0
0
0
0
0
0
0
0
0
0
0
0
0
0
0
0
0
0
0
0
0
0
0
0
0
0
0
0
0
0
0
0
0
0
0
0
0
0
0
0
0
0
-1.152579207398839455977177e-32
-1.268603903902286176470527e-29
-3.517618953749535145019948e-28
-4.898931469155228432993312e-27
-4.539706173979950768473583e-26
-3.144868162901670928085793e-25
-1.736398469686348987496163e-24
-7.957920564830670251838006e-24
-3.113364685688015670378131e-23
-1.061343436553266255159685e-22
-3.20248181148481176735962e-22
-8.659494732786686179377992e-22
-2.119422283776819497453887e-21
-4.734212352481865670335743e-21
-9.718393103704610881132816e-21
-9.914894057435183853586753e-21
-1.005863554795607001841305e-20
-1.01459023165182615844871e-20
-1.01738173023614502727601e-20
-1.014046188824658369111399e-20
-1.004497496090510169420882e-20
-9.88762523256794633612364e-21
-9.669851942851769174050483e-21
-9.394270067934946186062486e-21
-9.064637486487387857594122e-21
-8.685783144683267779909916e-21
-8.263497056048565991129009e-21
-7.804384872655308794637967e-21
-7.315691659847746055721242e-21
-6.805101272332868669853766e-21
-6.280519236501305978883198e-21
-5.749848170564759963648526e-21
-5.22076541698259624414779e-21
-4.700512646382986398859974e-21
-4.195706683083561768046519e-21
-3.712179708993924118592788e-21
-3.25485538275311892304125e-21
-2.827665368093495178999017e-21
-2.433508442424448859652275e-21
-2.074251923867009918456859e-21
-1.750772795169095609684034e-21
-1.463033793844126080580382e-21
-1.210188034811449485216589e-21
-9.907045521681158405373399e-22
-8.02506558474086674005299e-22
-6.431142357115759913705275e-22
-5.097844495212895879545557e-22
-3.996408267464179530211717e-22
-3.097890287193511047039962e-22
-2.374136413839579976901097e-22
-1.798547368642133368311592e-22
-1.346637005865839386384761e-22
-9.963925042131895196810793e-23
-7.284562102420421546009255e-23
-5.261560746997198586074232e-23
-3.754155424503683131658034e-23
-2.645746711770383036977319e-23
-1.841526788757766979717014e-23
-1.265787053483933151836244e-23
-8.591300758227544123065726e-24
-5.757573996166590662219795e-24
-3.809544282992329351340413e-24
-2.488478604128744987485453e-24
-1.604725037408874619049359e-24
-1.021540458768626654417791e-24
-6.419261199212710833293626e-25
-3.98179791590300853411433e-25
-2.43799040758089236794012e-25
-1.473468749716169129742949e-25
-8.790367715165478779518798e-26
-5.176480902590984468382227e-26
-3.009060799753297907949261e-26
-1.726657306580793250298563e-26
-9.780761983156690266843534e-27
-5.46946934113086730742691e-27
-2.499480372243286229608147e-27
-1.102988715069221547496537e-27
-4.707002126258185309299258e-28
-1.945092837041430768076455e-28
-7.792419354904463043304301e-29
-3.029722184446140892430851e-29
-1.144323216712896893608799e-29
-4.202290886443183139955115e-30
-1.501600923481163170563548e-30
-5.224692333520129680239126e-31
-1.771259499467185189837944e-31
-5.854237563318724976864466e-32
-1.887354017078442347352154e-32
-5.937982409594131910249207e-33
-1.823964572238806394402994e-33
-5.472165849191837478323588e-34
-1.604082673252726093170093e-34
-4.595848921026515816799643e-35
-1.287396012195360835272036e-35
-3.526892932877620480904287e-36
-9.452002995353196471393283e-37
-2.478660645315682056451427e-37
-6.361731835598971911977802e-38
-1.598438877467043842251224e-38
-3.932519378521279928070872e-39
-9.475159711187526376042065e-40
-2.236273668743554660521107e-40
-5.170868933067265453722457e-41
-1.171589331620208851425798e-41
-2.601534261188287837227277e-42
-5.662273185936563903630143e-43
-1.208147595945815121438891e-43
-2.52739852176214925710258e-44
-5.184471010074074408161564e-45
-1.042942177417498566669262e-45
-2.057711901829928377474578e-46
-3.982136442091602493273852e-47
-7.559419378139567692827855e-48
-1.407762563601819705353466e-48
-2.57194041567947801400175e-49
-4.609969555864738741349949e-50
-8.106783048051827656318836e-51
-1.398658384384967685150167e-51
-2.36742958999925053125751e-52
-3.931185275767117286532889e-53
-6.403492198728921376468673e-54
-1.023076312779442577812508e-54
-1.602986364784091382521814e-55
-2.462597713144509110733452e-56
-3.708374534558822672426649e-57
-5.472071903859174355615296e-58
-7.908752538618298258602078e-59
-1.118944163381702080310891e-59
-1.548598916762305141907462e-60
-2.094551501613809614560828e-61
-2.765197628095087906274764e-62
-3.557308407911214061318387e-63
-4.449215343043717549811945e-64
-5.392657617605116532123498e-65
-6.303743286112363566230956e-66
-7.053811879465360007426124e-67
-7.461338095425482256553073e-68
-7.286329162734431477004665e-69
-6.228872685344906864273544e-70
-3.933512760778112152968839e-71
-9.03644996909206807061211e-76
5.992329878845716169715516e-73
1.44654100672961821074494e-73
2.579784391150944903875127e-74
4.028861804815975318243804e-75
5.811346335994702632646415e-76
7.928446813028164569992198e-77
1.036168822472943354134773e-77
1.307079527556981197023349e-78
1.599319660738949381990474e-79
1.904543420096618873940837e-80
2.212657358286578050258791e-81
2.512348678706473408574504e-82
2.791765056176732791867692e-83
3.03928997319513092517437e-84
3.244343091729107217074835e-85
3.398128886754585347261041e-86
3.494259890414673369373752e-87
3.529193269930047603047548e-88
3.50243951296307890601241e-89
3.416526981133825087280325e-90
3.276732563934318284853705e-91
3.090613029815906886111665e-92
2.867390778759146100103489e-93
2.617259324848304589279444e-94
2.350676973337656154852996e-95
2.077712091335618675584335e-96
1.807491529991590061853608e-97
1.547787373036416007377178e-98
1.304758874403776101243957e-99
1.082848755392086956666789e-100
8.8481806928154790103418e-102
7.118930280482647841358301e-103
5.639911491039905955425709e-104
4.399926963778734101653403e-105
3.380259387605982364946009e-106
2.557401307846480253721154e-107
1.905470927917404444141808e-108
1.39819652866761875245786e-109
1.010420499151253725529374e-110