# geometry NO_DATA 628
#  x  y  z
3.494708341096002701675616 0.02406565180230794270821448 1.679357310706305117520287
3.489416682192004959262022 -0.0166666666666666594964763 1.681741166997156478046804
3.494708341096002701675616 -0.009267681531025390162525923 1.679357310706305117520287
3.474515751516089157036049 -0.01313519468516554690451503 1.689416682192004914853101
3.464906479744169764956041 -0.03588521021050401771379512 1.694708341096002657266695
3.464906479744169764956041 0.009614820840172910026977249 1.69470834109600243522209
3.488858434397271057747503 -0.03941668219200512857103291 1.681182919202422576532285
3.47395750372135481143232 -0.03941668219200512163213901 1.688858434397271013338582
3.47395750372135481143232 0.03941668219200513550992682 1.688858434397271013338582
3.488858434397271057747503 0.03941668219200512857103291 1.68118291920242235448768
3.53713913945745028755141 0.002502463496610655285801172 1.672445425624188963809047
3.543569569728724832913258 0.02297493628739385312931276 1.675599560434552381948947
3.543569569728725277002468 -0.01797000929417254949660432 1.675599560434552603993552
3.526106581831567332585564 -0.02435523239480406887391695 1.672300775707451281348881
3.536381294966911781330055 -0.03713913945744987121777569 1.675493387257767086140348
3.51587034543617571458185 -0.03721609293735420043169881 1.674861496907994240501694
3.51587034543617615867106 0.03721609293735420043169881 1.674861496907994240501694
3.526106581831567332585564 0.02435523239480407581281085 1.672300775707451281348881
3.536381294966911781330055 0.03713913945744987121777569 1.675493387257766864095743
3.526864426322106282896129 -0.003882759604020862790468849 1.669252814073873381062185
3.523020143458037267691907 0.003805806124116543984886585 1.669214337333920994410619
3.512783907062645205598983 0.001315636276969481656753946 1.671775058534463953563431
3.506391953531322602799492 0.02186506254765701109943343 1.674374256474959299367811
3.506391953531322602799492 -0.01923378999371806036267074 1.674374256474959299367811
3.578159428579649414814412 -0.01738362700314379644117579 1.695543055582793501301353
3.570765130915634077979348 0.00703581749577673193352112 1.691086111165586824967022
3.578159428579649414814412 0.03145526199469726724711194 1.695543055582793501301353
3.566308186498428511868042 -0.04108611116558720521840797 1.688460953997765523482144
3.566308186498427623689622 0.04108611116558719827951407 1.688460953997765523482144
3.554456944417206276654042 0.02692190799553118019105113 1.681378852412737545662935
3.558913888834412730943768 0.002502463496610640106970758 1.684004009580558847147813
3.554456944417206276654042 -0.0219169810023098904361305 1.681378852412737545662935
3.398737937608975911984999 0.04110793602073677110997352 1.742369998411760656509273
3.397475875217951912787839 -0.01666666666666666296592325 1.7442919056193444404812
3.398737937608975911984999 0.007774602687403428698253993 1.742369998411760656509273
3.393557763920885594899346 0.008830444072534450461464672 1.747475875217952223650286
3.390901715014843720297222 -0.02197876447875097075113082 1.748737937608976000802841
3.390901715014843720297222 0.03963965262381986126571931 1.748737937608976000802841
3.396357933593911582192959 -0.04747587521795208070907179 1.74317396399530366579711
3.392439822296844376126046 -0.04747587521795208070907179 1.746357933593911448966196
3.392439822296844376126046 0.04747587521795208070907179 1.746357933593911226921591
3.396357933593910694014539 0.0474758752179520876479657 1.74317396399530366579711
3.445057633618048953394464 -0.0145193264086056726680507 1.706016036510981104257212
3.447528816809024565515074 0.01387164054277705178830349 1.704618523449036304739934
3.447528816809024565515074 -0.04291029335998840232857532 1.704618523449036082695329
3.429298995866802535203988 -0.03088736957894158696724674 1.717574695582086974354752
3.438880530513915179113837 -0.04505763361804938915700092 1.711563233691563157279347
3.415103512391111539869826 -0.03582973596089218670801557 1.728586209459170408564432
3.415103512391111539869826 0.03582973596089218670801557 1.728586209459170408564432
3.429298995866802535203988 0.03088736957894158696724674 1.717574695582086974354752
3.438880530513915179113837 0.04505763361804940303478872 1.711563233691563157279347
3.435476098970936309484614 -0.002496402627558849066785607 1.712027498401504477243407
3.428365747514798833606164 0.01172430028471605975570746 1.716641447230083272756929
3.414170264039107838272002 0.01029872746945133601959022 1.727652961107167151055819
3.40708513201955387472708 0.02946179676367686323112949 1.734050526155672011796582
3.40708513201955387472708 -0.008864341824774180783608202 1.734050526155672011796582
3.453067153741195660643371 -0.04909330345909677234539359 1.701301417750445077459176
3.451301417750445299503781 -0.04909330345909677234539359 1.702375087879475445973299
3.451301417750444855414571 0.04909330345909677234539359 1.702375087879475445973299
3.453067153741195216554161 0.04909330345909677234539359 1.701301417750445077459176
3.453984820251952303493681 -0.0455618314775956684270497 1.700453348270451581214502
3.452672432531653790022119 -0.01313519468516555210868546 1.700906696540903206837925
3.453984820251952303493681 0.01929144210726455727078488 1.700453348270451581214502
3.45090669654090298479332 -0.01451932640860567787222113 1.701980366669933575352047
3.450453348270451137125292 0.01790731038382443324197268 1.702600688528512318242747
3.450453348270451137125292 -0.04694596320103579245586189 1.702600688528512318242747
3.597230196144329372742732 -0.009813280621640902562363706 1.706196496878183310741406
3.598615098072164730780287 0.0207502488560222450586501 1.708238287972860813823672
3.598615098072164730780287 -0.04037681009930404324448361 1.708238287972860813823672
3.593799673486719914450305 -0.04723019614432982793417182 1.704811594950348174748456
3.593799673486719914450305 0.04723019614432980711749011 1.704811594950347952703851
3.59241477155888455641275 -0.01666666666666667684371106 1.702769803855670227576979
3.588984248901275098120323 0.004266013640106544949071044 1.701384901927835091584029
3.588984248901275098120323 0.03759934697343987608508797 1.701384901927835091584029
3.636204272995274600077664 -0.007421380256357692009605564 1.743625653251632545703842
3.62766365662018808180278 0.01316325958024073573826573 1.737251306503265091407684
3.636204272995274600077664 0.0337478994168391582819666 1.743625653251632545703842
3.621289309871820627506622 -0.0372513065032650941832415 1.730385679607479021413496
3.621289309871820627506622 0.0372513065032650941832415 1.730385679607478799368891
3.606374346748367543114 0.01077135921495753559384845 1.717145705963324830989336
3.612748693496734553320948 -0.009813280621640888684575899 1.724011332859111123028129
3.606374346748367543114 -0.03039792045823931990189415 1.717145705963324830989336
3.347027991644856648179029 0.03012717759815922158317392 1.783099185953301857310294
3.344055983289713651629427 -0.01666666666666665602702935 1.787091580443936233990598
3.347027991644856648179029 -0.00320615573517411562437518 1.783099185953301857310294
3.334962319406388431275445 -0.001520661099983939505003727 1.794055983289713829265111
3.328840663878206207471067 -0.02890997772303144364158811 1.797027991644856825814713
3.328840663878206207471067 0.02586865552306354815170764 1.797027991644856825814713
3.342153073787337280720067 -0.04405598328971414845423027 1.785188670941559863081238
3.333059409904012060366085 -0.04405598328971416233201808 1.792153073787337236311146
3.333059409904012060366085 0.04405598328971416927091198 1.792153073787337236311146
3.342153073787337280720067 0.04405598328971416233201808 1.785188670941559863081238
3.373493358354992643910464 -0.04123682762747909319456241 1.760744802985392709615553
3.360744802985392798433395 -0.04123682762747909319456241 1.770447066806282165885023
3.360744802985392798433395 0.04123682762747910013345631 1.770447066806282165885023
3.373493358354992643910464 0.04123682762747910013345631 1.760744802985392709615553
3.379878696925461500910615 -0.01573971688827798670606839 1.754381586186260166826401
3.371511727742121156126132 0.00883044407253444699201772 1.758763172372520777742011
3.379878696925461500910615 0.03340060503334687375120993 1.754381586186260166826401
3.358763172372520422470643 0.002737860975111725686526043 1.768465436193409789922271
3.354381586186260477688847 0.02730802193592415244571825 1.773786113828038413231525
3.354381586186260477688847 -0.02183229998570070454211312 1.773786113828038413231525
3.648685113409124713967913 -0.01346944881328814361265422 1.752913495517564479442285
3.649342556704561424396616 0.01854899792916987061319745 1.753854661148816163063202
3.649342556704562756664245 -0.04548789555574615783850589 1.753854661148816163063202
3.647590853161349233602095 -0.04868511340912468760011578 1.752256052222126658790557
3.647590853161349233602095 0.04868511340912468066122187 1.752256052222126658790557
3.646933409865911190905763 -0.01666666666666666296592325 1.751314886590875197214245
3.645839149618136154629155 0.01184837298936542056282395 1.750657443295437376562518
3.645839149618136154629155 0.04518170632269875863773478 1.750657443295437376562518
3.693802870139634819679486 0.03462250156933358025135306 1.79081963142969913249658
3.687605740279269017634078 -0.01666666666666668031315801 1.786114120924300552317732
3.693802870139634819679486 0.001289168236000244995367869 1.79081963142969913249658
3.678990115318612197370385 -0.0005645832546468162321806616 1.779554698573258209037817
3.676571620218321179152099 0.004272406945935057140384394 1.777700786727614001847542
3.685644997184523763422703 -0.03760574027926840562363608 1.784153377829555298106357
3.66852057851231139196102 -0.02150365686724853980793526 1.770683770693646685856493
3.668978330517856711878721 -0.03760574027926840562363608 1.770576939444545416790788
3.67702937222386694315901 0.0215036568672485224607005 1.777593955478512954826442
3.666559835417565693660435 0.03389791658798013002096283 1.768723027598901431645118
3.685644997184523763422703 0.03760574027926839174584828 1.784153377829555520150961
3.658051041706009698373236 0.003761801108025319972938405 1.761812842814035384719773
3.666102083412019929653525 -0.01346944881328814881682465 1.768829858848002700710822
3.658051041706010142462446 -0.03070069873460160719824685 1.761812842814035384719773
3.704183097214554187814883 -0.04519485654539093927306581 1.799377953759944137601678
3.703024617967360487824635 -0.01310561569216830285489195 1.798755907519888896928251
3.704183097214554187814883 0.01898362516105434050217582 1.799377953759944137601678
3.702402571727305247151207 -0.04875590751988932020077883 1.797886334404977137779724
3.702402571727304803061998 0.04875590751988929938409711 1.797886334404976915735119
3.700622046240055418309112 0.04577266880995448788960189 1.79639471505000969386856
3.701244092480110658982539 0.0136834279567318462672576 1.797264288164921453017087
3.700622046240055418309112 -0.01840581289649079882453364 1.79639471505000969386856
3.294676979460713361902435 0.01786488741473713295904169 1.823187907954024300494211
3.289353958921426457351345 -0.01666666666666665602702935 1.828609423168081393740181
3.294676979460713361902435 -0.01546844591859620511586915 1.823187907954024078449606
3.27519785133209895278128 -0.01164554851198777198073575 1.839353958921426057671056
3.266364764282058352762306 -0.03433284076674711360332992 1.844676979460713184266751
3.266364764282058352762306 0.01104174374277155402934714 1.844676979460713184266751
3.287834268486926170282914 -0.03935395892142599938434699 1.827089732733581328716355
3.273678160897598665712849 -0.03935395892142599244545309 1.83783426848692599264723
3.273678160897598665712849 0.0393539589214260063232409 1.837834268486926214691835
3.287834268486926170282914 0.0393539589214260132621348 1.827089732733581772805564
3.314300054856663013680418 -0.04500268345469510961054382 1.806727052073320738401208
3.306727052073321182490417 -0.04500268345469510961054382 1.812649182986643126014314
3.306727052073321182490417 0.04500268345469513042722554 1.812649182986643348058919
3.314300054856662569591208 0.04500268345469513042722554 1.806727052073320738401208
3.317644663839335539279318 -0.02985667788801239092011386 1.802498658272652320988527
3.312570319328646206713529 -0.001520661099983928012460699 1.804997316545304819612738
3.317644663839335095190108 0.02681535568804451277746814 1.802498658272652320988527
3.304997316545304819612738 -0.004822404840022186979509033 1.81091944745862698518124
3.302498658272652765077737 0.02351361194800626053247328 1.814342920099297096214741
3.302498658272652765077737 -0.03315842162805064663455568 1.814342920099296652125531
3.738587606799196993989653 0.005914221534774322802663349 1.82270283730152304890737
3.744293803399598719039432 0.02783516166730485089098046 1.828287084801842432568719
3.744293803399598274950222 -0.01600671859775620181620681 1.828287084801842432568719
3.729407662220181052248336 -0.03858760679919719105424036 1.816996640701121989991407
3.729407662220181496337545 0.03858760679919719105424036 1.816996640701121989991407
3.723701465619779327198557 -0.01666666666666666296592325 1.811412393200802606330058
3.714521521040764273635659 -0.02451800889297110069842134 1.805706196600401103324884
3.714521521040764273635659 0.008815324440362230437595592 1.805706196600401103324884
3.766303837567210877068646 -0.03137162738901444480887903 1.847675464956225255264144
3.761638721349267910909475 -0.002687364143230776443449503 1.845350929912450199665841
3.766303837567210877068646 0.02599689910255290059559741 1.847675464956225255264144
3.759314186305492633266567 -0.04535092991245033566816147 1.842299242390279090386684
3.759314186305492633266567 0.04535092991245033566816147 1.842299242390279090386684
3.752324535043774833553698 0.03459848478055799203545462 1.836923019824332925509225
3.754649070087549667107396 0.005914221534774316731131183 1.839974707346504034788381
3.752324535043774833553698 -0.02277004171100935336902182 1.836923019824332925509225
3.199647215857571502795054 0.04748454874937259317935201 1.897837332891800343759314
3.199294431715144160222053 -0.01666666666666666990481716 1.898389490232257781343606
3.199647215857571502795054 0.01415121541603925683916465 1.897837332891800565803919
3.198322039713361153445703 0.01472188266310096166344934 1.899294431715143227634712
3.197702431854006821509984 -0.01790588238537597562394232 1.899647215857571236341528
3.197702431854006821509984 0.04734964771157790242028796 1.899647215857571236341528
3.198968895989342975383352 -0.04929443171514359678386796 1.898063954506457484683324
3.197996503987560856785421 -0.04929443171514361066165577 1.898968895989342708929826
3.197996503987560856785421 0.04929443171514359678386796 1.898968895989342708929826
3.198968895989342975383352 0.04929443171514359678386796 1.898063954506457040594114
3.234977481649210950820361 -0.01247640398584946332116719 1.867117649691196534789128
3.242488740824605475410181 0.005834410996695742375461879 1.861701521856211183347796
3.24248874082460591949939 -0.03078721896839466468098756 1.861701521856211183347796
3.225811714667611518336798 -0.01856208438472086580395271 1.874167566351732761020799
3.234270682702033106181716 -0.03497748164921187646880796 1.868054999059896248425616
3.216656307176339879561056 -0.03358460273550899211070231 1.882418032360120285773064
3.216656307176338991382636 0.0335846027355089851718084 1.882418032360119841683854
3.225811714667611518336798 0.0185620843847208588650588 1.874167566351732983065403
3.234270682702032662092506 0.03497748164921186952991405 1.868054999059896248425616
3.226518513614790251153863 -0.0002512694021756623841482026 1.873230216983033047384311
3.225570804755762743809555 0.001644148315878532539205392 1.87392665643988465262737
3.216415397264491105033812 0.01485678370089565589196035 1.882177122448271733290426
3.208207698632245641334748 0.03177471976973797462839855 1.889731148999807430755027
3.208207698632245641334748 -0.00206115236794666544656307 1.889731148999807430755027
3.254953570087766312468602 -0.04828115991895448599890983 1.852443011010426854312527
3.252443011010426765494685 -0.04828115991895448599890983 1.854538142350835805416409
3.252443011010426765494685 0.04828115991895446518222812 1.854538142350836027461014
3.254953570087766312468602 0.04828115991895446518222812 1.852443011010427298401737
3.255880538195201623352659 -0.04326004176427560021789276 1.850859420040522618222667
3.254229399158385049872777 -0.01164554851198779800158789 1.851718840081045591716702
3.255880538195201623352659 0.01996894474030001809250479 1.850859420040523062311877
3.25171884008104550289886 -0.01247640398584946852533761 1.853813971421454320775979
3.250859420040522529404825 0.01913808926643834756875506 1.855049682721340076341221
3.250859420040522529404825 -0.04409089723813726380274858 1.855049682721340076341221
3.793522124648575299943332 -0.00207783352829040562914642 1.863772291920612111937317
3.796761062324287117064614 0.02477762445361861298742667 1.867827770814088239603734
3.796761062324287117064614 -0.02893329151019942771516646 1.867827770814088239603734
3.787084046919338309322711 -0.04352212464857568852139025 1.860533354244900294816034
3.787084046919338309322711 0.04352212464857568852139025 1.860533354244900294816034
3.783845109243626048112219 -0.01666666666666666296592325 1.856477875351424167149617
3.777407031514389945670018 -0.009165239494655086360808127 1.853238937675712350028334
3.777407031514389945670018 0.02416809383867824650993228 1.853238937675712350028334
3.830943804230825922019221 -0.01457465861640031348778201 1.895518462847226803802414
3.822194207844573199395199 0.009795600411386287675874485 1.891036925694453474378065
3.830943804230825922019221 0.03416585943917287149229622 1.895518462847226803802414
3.817712670691799647926246 -0.0410369256944532606601328 1.886146212749748141135342
3.817712670691799647926246 0.04103692569445327453792061 1.886146212749748141135342
3.80448153715277337383327 0.02229242549949618859561618 1.87677396265226947846827
3.808963074305546037123804 -0.002077833528290396088167302 1.881664675596974811710993
3.80448153715277337383327 -0.02644809255607699638446206 1.87677396265226947846827
3.159105009179241196903831 -0.03712581190528542463002992 1.946230821084526940722981
3.160206272962830631456654 -0.01133083640289817700663733 1.942461642169053925854882
3.159105009179241640993041 0.01446413909948906714730832 1.946230821084526940722981
3.18051887787485387804054 -0.03659061443208690839190567 1.914824603209969611228303
3.168593782125443514274821 -0.02905225660114081620566395 1.927722090961163425859581
3.164557004473370405150945 -0.04246164216905391058931585 1.937684064843873565919807
3.168593782125443514274821 0.02905225660114082314455786 1.927722090961163203814976
3.164557004473370405150945 0.04246164216905391058931585 1.937684064843873787964412
3.18051887787485387804054 0.03659061443208691533079957 1.914824603209969611228303
3.188093242113724024022758 -0.005202065102319283762533075 1.906704692783956156532099
3.179103660232796890738882 0.01472188266310097033706672 1.913409385567912623926645
3.188093242113724024022758 0.03464583042852121402832566 1.906704692783956156532099
3.167178564483386082883953 0.009128308835720586392192821 1.926306873319106438557924
3.16424305061490329649132 -0.003257281098753570750675701 1.932499668286343563750052
3.847691522696586208240888 -0.01151273756715047794085827 1.904885441853172212134382
3.848845761348293592618575 0.01951211846276908884467716 1.906308167751223248131964
3.848845761348293592618575 -0.04253759359707005166528759 1.906308167751223248131964
3.845410228220652815167568 -0.04769152269658624709869343 1.9037312032014650498013
3.845410228220652815167568 0.04769152269658623322090563 1.903731203201465271845905
3.844255989568946318968301 -0.01666666666666666990481716 1.902308477303413791759112
3.841974695093012925894982 0.007487123107972505978158217 1.901154238651707295559845
3.841974695093012925894982 0.04082045644130584405306905 1.901154238651707295559845
3.884785285267471799386385 0.00960586857206933292241402 1.928350982351895837041411
3.892392642633736077328876 0.02772448717287515768115114 1.933879892605000039296215
3.892392642633736077328876 -0.008512750028736479693258765 1.933879892605000039296215
3.871516402645374999025307 -0.02368645538682583734368947 1.920064450711235881641414
3.882633654371718368025768 -0.03478528526747248772466037 1.927651303390280901339793
3.862457093344972225423817 -0.03890117011935335933348057 1.915034057894730468163402
3.862457093344972225423817 0.03890117011935333157790495 1.915034057894730246118797
3.871516402645374999025307 0.02368645538682581652700776 1.920064450711235881641414
3.882633654371718368025768 0.03478528526747248772466037 1.927651303390280457250583
3.873668033541128430385925 -0.0055678367860200273301019 1.920764129672850817343033
3.870158139181049339327956 0.001451951934139127098344346 1.918706187246910221944063
3.861098829880647009815675 -0.01151273756715049181864607 1.913675794430404808466051
3.855549414940323771361363 0.01072176588553618893639996 1.910703344039839546297799
3.855549414940323771361363 -0.03374724101983717083896863 1.910703344039839990387009
3.911306064078438282649586 -0.03713585045930009598258437 1.948441914537738739454653
3.907990160232611920321233 -0.006918688050490286525762151 1.946883829075476635139808
3.911306064078438282649586 0.02329847435831952640050702 1.948441914537738295365443
3.906432074770350482140202 -0.04688382907547648109636285 1.944911515490439946063361
3.906432074770350482140202 0.04688382907547648109636285 1.944911515490439501974151
3.901558085462261793452399 0.03982303098087915799174752 1.941381116443141152672069
3.903116170924523675722639 0.009605868572069339861307924 1.943353430028177841748516
3.901558085462261793452399 -0.02061129383674047479968472 1.941381116443141152672069
3.150440764417561823051983 -0.04946597132701634202955887 1.999906735744577890301343
3.150360278591914919843475 -0.01631916650452795020109775 1.999813471489155336513477
3.150440764417561823051983 0.01682763831796044162736337 1.999906735744577446212134
3.156359344074529005297336 -0.04743790207528240931988961 1.953691428942644581212562
3.153784693198066868546903 -0.04725137356443746827761032 1.970264831353889078968677
3.152677394316777625959958 -0.04981347148915506173327827 1.985650449058196764795525
3.153784693198066868546903 0.04725137356443746827761032 1.970264831353888634879468
3.152677394316777625959958 0.04981347148915506173327827 1.98565044905819654275092
3.156359344074529005297336 0.04743790207528240238099571 1.953691428942644581212562
3.156616879226127103663657 -0.04210207181151391642170978 1.951281048962358877219003
3.155230013056601556797887 -0.01133083640289818568025471 1.952562097924717798846928
3.156616879226127103663657 0.01944039900571755546954122 1.951281048962359321308213
3.152655362180139864136663 0.01648013815582172539309092 1.969135500335961852513833
3.15146757747320416243042 -0.01410456874194907124497878 1.984427853784847428642024
3.942397644012219704023892 -0.0003796705932731306298855145 1.965745854024477212718125
3.946198822006110162874393 0.02535130675227948576777592 1.970088174067283759427482
3.946198822006110162874393 -0.02611064793882578519146342 1.970088174067283759427482
3.934406144647532244107424 -0.04239764401221927936358469 1.961944676030587197956834
3.934406144647532244107424 0.04239764401221932099694811 1.961944676030587197956834
3.930604966653641785256923 -0.01666666666666663174090068 1.957602355987781095336686
3.922613467288952993072826 -0.01452104403827096310020117 1.953801177993890636486185
3.922613467288952993072826 0.01881228929506236977053923 1.95380117799389041444158
3.975338521563273275205574 -0.02059834217307590989443078 1.99593686373634859876347
3.968763965177113384186214 0.004608718632954861629813514 1.991873727472697197526941
3.975338521563273275205574 0.0298157794389856262151639 1.99593686373634859876347
3.964700828913461982949684 -0.04187372747269743622489102 1.987413695106378330734742
3.964700828913461982949684 0.04187372747269743622489102 1.987413695106378774823952
3.954063136263651578872214 0.02482739021275760099571883 1.978890526476408950884434
3.958126272527302980108743 -0.0003796705932731595238734112 1.983350558842727373587422
3.954063136263651578872214 -0.0255867313993039316444289 1.978890526476408506795224
3.172947111209815318488836 -0.02310202923190122006880109 2.046049140441716485128154
3.16739984494233306477895 0.002329584984864851993080492 2.042098280883433147891992
3.172947111209815318488836 0.02776119920163091017717427 2.046049140441716929217364
3.150716309998397690605998 -0.04972294821706516737558346 2.000542559917327878338256
3.154493419475611126756576 -0.04182122910049790309727769 2.013258367025710704467656
3.16385301940990970592793 -0.04209828088343271768057008 2.029786507800910300147734
3.154493419475612014934995 0.04182122910049791003617159 2.013258367025710704467656
3.16385301940991015001714 0.04209828088343273849725179 2.029786507800910300147734
3.150716309998397690605998 0.04972294821706516737558346 2.000542559917327878338256
3.15048602605360672512802 -0.04937544805492645461075796 2.000138525891467899953113
3.150450801864004723995549 -0.01631916650452795020109775 2.000277051782934911727807
3.15048602605360672512802 0.01673711504587055420856245 2.000138525891467455863904
3.154227911341218604235337 0.008764947550099405626511384 2.012992858891318181946417
3.158040245008034929696805 -0.01638961488373182756594915 2.025570140108233552211914
3.995917320178080434089907 -0.00270867653615402062539097 2.01106167488717524349795
3.997958660089039995000348 0.02654197697526042287741177 2.015999330041472248353784
3.997958660089039995000348 -0.031959330047568443311512 2.015999330041472248353784
3.991929686072184679801467 -0.04591732017808110299927904 2.009020334976215682587508
3.991929686072184679801467 0.04591732017808108912149123 2.009020334976215682587508
3.989888346161225118891025 -0.01666666666666668378260496 2.004082679821918677731674
3.985900712055328476424165 0.0005260388110359462410237086 2.002041339910959116821232
3.985900712055328476424165 0.03385937214436927911176411 2.002041339910959116821232
4.016820949746305657868106 -0.02916192203738741245411248 2.045982871783693646250413
4.014436167197612981283328 -0.003862845136667300040278494 2.0419657435673870260473
4.016820949746305657868106 0.02143623176405281063883201 2.045982871783693646250413
4.010419038981305916991005 -0.04196574356738677624711897 2.036295200182283160472707
4.010419038981305916991005 0.04196574356738678318601288 2.036295200182283160472707
4.004017128216306176113903 0.02259040036456611000303951 2.026607528580872674695001
4.008034256432613240406226 -0.002708676536153997206624044 2.032278071965976540269594
4.004017128216306176113903 -0.02800775343687410962045803 2.026607528580872674695001
3.193995923130253267174794 -0.002318949872902697443427522 2.063177935266628626465035
3.196997961565126278316029 0.02501030659068399081279566 2.06734975522863706487442
3.196997961565126278316029 -0.02964820633648938136284201 2.06734975522863706487442
3.189829420724225705896515 -0.04399592313025335599263599 2.06017589683175517123459
3.189829420724225705896515 0.04399592313025335599263599 2.0601758968317556153238
3.18682738228935225066607 -0.0166666666666666664353702 2.056004076869746732825206
3.182660879883324689387791 -0.003674491884881806065543675 2.053002038434873277594761
3.182660879883324689387791 0.02965884144845152420311152 2.053002038434873277594761
3.225118559908935367275262 -0.02092749963235254057059009 2.096046059541287309713198
3.21849019064253605293402 0.004497952783556049410895739 2.092092119082574530608554
3.225118559908935367275262 0.02992340519946464633127547 2.096046059541286865623988
3.214536250183823717918585 -0.04209211908257526335574994 2.086553251271502595898255
3.214536250183823717918585 0.04209211908257526335574994 2.086553251271502595898255
3.203953940458712512651118 0.02310650254300589817590961 2.077060443001717882083312
3.207907880917424847666553 -0.002318949872902695275023177 2.082599310812789816793611
3.203953940458712512651118 -0.02774440228881128872595596 2.077060443001718326172522
4.025438685466665944545639 0.0003067581009170325628647447 2.074868072634250992791749
4.02544941130902067527586 -0.000285306416207191631661394 2.075164104892813554670283
4.024646296681898327562976 -0.001320922838037920073531173 2.083640091434250329882616
4.023832456212420360941451 -0.01829434760562162476382753 2.091820045717124987305624
4.02383245621242124911987 0.01565250192954578678516953 2.091820045717124987305624
4.02365799178704630634229 -0.0172587311837908985445722 2.073372685370839185736713
4.021573190168254541276838 -0.03361863974954053257970799 2.064885972987046791615739
4.022854877159923958629406 -0.03364009143425037567931568 2.081848671912275960949046
4.022854877159923958629406 0.03364009143425037567931568 2.081848671912275960949046
4.023364609690228022031988 0.0172587311837908916056783 2.066677392509021604638519
4.021583916010609272007059 0.03364009143425036874042178 2.065182005245609353494274
4.023353883847873291301767 -0.01666666666666666990481716 2.066381360250459486849195
4.021279808071436256966535 -0.02024420538712677977710719 2.058190680125229654606756
4.021279808071436256966535 0.01308912794620655309363322 2.058190680125229654606756
3.245617942214457318783616 -0.006002905904645763901505973 2.109713938166552615882665
3.247808971107228437347203 0.02294836964314505081685702 2.112854789654791787256727
3.247808971107228437347203 -0.03495418145243658208931592 2.112854789654791787256727
3.241724614165673479249108 -0.04561794221445747421483929 2.107522909273781053229868
3.241724614165673479249108 0.0456179422144574880926271 2.107522909273781053229868
3.239533585272901916596311 -0.01666666666666665602702935 2.104382057785541881855806
3.235640257224118077061803 0.0001158949980135381974122311 2.102191028892770763292219