# geometry NO_DATA 608
#  x  y  z
3.446491196840264947809374 0.0414932063632517736384564 1.795002009522986385903209
3.442982393680529717983063 -0.01666666666666649990191651 1.792237800021891036550414
3.446491196840264947809374 0.008159873029918444237162944 1.795002009522986385903209
3.441596827681920878205801 0.01389553466944863993615122 1.792982393680530250890115
3.44372006484304638007643 -0.01242019234441502952004388 1.796491196840265036627216
3.44372006484304638007643 0.04021126168331214806306306 1.796491196840265036627216
3.446269128816441984497487 -0.04298239368053017456228204 1.795524535157803303064838
3.444883562817833144720225 -0.04298239368053017456228204 1.796269128816442517404539
3.444883562817833144720225 0.04298239368053034109573574 1.796269128816442517404539
3.446269128816441984497487 0.04298239368053033415684183 1.795524535157803081020234
3.490705841222533578616094 0.001817576105883839891058651 1.768536280163741203352856
3.495352920611266345218837 0.02585675066175128003487238 1.773131322161283662808273
3.495352920611266345218837 -0.02222159844998353173117778 1.773131322161283662808273
3.485110433667677032332222 -0.0253020488422001713080256 1.777737925778476668625672
3.494075204144177604348442 -0.04070584122253411568648218 1.779278150974585415156071
3.473090846389743635569403 -0.03459620761966605839710098 1.789012919397771295138
3.473090846389743635569403 0.03459620761966604451931317 1.789012919397771073093395
3.485110433667677032332222 0.02530204884220008804129876 1.777737925778476668625672
3.494075204144177604348442 0.04070584122253402548086143 1.779278150974585415156071
3.481741070746033450689083 -0.001262874286332801854193519 1.766996054967632456822457
3.477423379658266533454025 0.007372507889200700416376666 1.77005087176906639179208
3.465403792380333136691206 0.01517747934938809897809087 1.781325865388361018304408
3.457701896190166213074235 0.03310702030238749093982165 1.789546042206221487802509
3.457701896190166657163445 -0.002752061603611288213150354 1.789546042206221487802509
3.537661545825125486430807 0.008887509057386788063892524 1.775115542036900251332554
3.543830772912562210308351 0.02988238821584629847927239 1.781723402811490331032473
3.543830772912562210308351 -0.0121073701010727327598282 1.781723402811490331032473
3.525116677132534181993151 -0.02829923119708606382705085 1.770788464640741910471888
3.537102186485181043451576 -0.03766154582512618032019702 1.778884395188748523963795
3.514619237553304742505134 -0.04063768537195988628241139 1.773861358939580412652504
3.514619237553304742505134 0.04063768537195980995457845 1.773861358939580412652504
3.525116677132534626082361 0.02829923119708599790755876 1.770788464640741910471888
3.537102186485180599362366 0.03766154582512618725909093 1.778884395188748523963795
3.525676036472479069061592 -0.007304352038626544738053603 1.767019611488893859885252
3.519859754207269375569922 0.004328212491792779795241053 1.765531541715477104048659
3.509362314628039491992695 0.001817576105883845745750382 1.76860443601431538418467
3.504681157314019745996347 0.02578859481117705756969549 1.773165400086570642201877
3.504681157314019745996347 -0.02215344259940930232710699 1.773165400086570642201877
3.577037547322017729811705 0.003430076720018996900424257 1.776392529398001407514585
3.578591331201023351127333 -0.0003225089620082337575797393 1.7782688222390146126628
3.576182240116276833674647 -0.004495673207483563693642736 1.786763410053352263417992
3.572219365152524694906333 -0.02459241659416921965686242 1.793381705026675820846549
3.572219365152526027173963 0.01560107017920206104455438 1.793381705026675820846549
3.575871139752965888192193 -0.005762891858122725675939169 1.775548630790957371772265
3.567376551938628015392396 -0.02210704956278113086920456 1.78015363980065477456094
3.566133868422934227737642 -0.03676341005335229117356732 1.789492126222035794924636
3.567376551938628015392396 0.02210704956278117250256798 1.780153639800655440694754
3.566133868422934227737642 0.03676341005335232586803684 1.789492126222036016969241
3.575871139752965888192193 0.005762891858122778585005186 1.775548630790957815861475
3.574317355873960710965775 -0.002010306176095494855304846 1.773672337949943944579445
3.573150948304908869346264 0.0003225089620082872629569515 1.772828439342900352926335
3.564656360490570996546467 0.008887509057386791533339476 1.777433448352597977759615
3.557328180245285409455391 0.02756448190014896409971712 1.782882355969338750156794
3.557328180245285409455391 -0.009789463785375396645549451 1.782882355969338750156794
3.384641917433269586723554 0.01245855277074923474212031 1.829920692285438521551555
3.392320958716634748952856 0.03043380353735216509170058 1.836804260720781289961678
3.392320958716634748952856 -0.005516697995853738975546854 1.836804260720781067917073
3.381233666550963690156095 -0.0119158744205224570444912 1.84314954097148619993618
3.375892521818252056675647 0.007716540855783479702090233 1.836299081942972311054518
3.381233666550964134245305 0.02734895613208936093752044 1.84314954097148664402539
3.383371072814106206294582 -0.01825860657370740464111591 1.832062488714170545023308
3.391846084050992971015148 -0.0346419174332696019891209 1.838433443003097078616292
3.381233906459318649950774 -0.01991577108341035379224238 1.834199655068958101367116
3.385233854790762997311049 -0.03629908194297255114024736 1.842674666305843533820052
3.381233906459318649950774 0.01991577108341045440620398 1.834199655068958323411721
3.385233854790762553221839 0.03629908194297259971250469 1.842674666305843977909262
3.383371072814107094473002 0.01825860657370749137728971 1.832062488714170545023308
3.391846084050992082836729 0.03464191743326963668359042 1.838433443003097522705502
3.376166906196383710181408 -0.000283355807104430598188094 1.823549737996511765913965
3.375370936242863439957773 0.001308584099936355854554293 1.824062352142927334597289
3.373233769888075883613965 0.002965748609639318016106824 1.826199518497715112985702
3.371892573486808153404581 -0.0002833558071044187803844139 1.827824070706087100646187
3.436755056583398193481571 -0.03568222091471584533906025 1.821473955915340781075429
3.421473955915340869893271 -0.03568222091471584533906025 1.836036565634048489670249
3.421473955915340869893271 0.03568222091471585921684806 1.836036565634048933759459
3.436755056583398193481571 0.03568222091471585921684806 1.821473955915340781075429
3.437721090878757213005201 -0.005120019578600696827375138 1.807158889542641810876944
3.429598879753341655884924 0.01389553466944849768882619 1.814317779085283799389572
3.437721090878757213005201 0.03291108891749767312306929 1.807158889542641810876944
3.414317779085283888207414 0.01245855277074921566016208 1.828880388803991952073602
3.407158889542642121739391 0.03147410701879838762495822 1.836284108980058116245004
3.407158889542642121739391 -0.006557001477299982325486205 1.836284108980057894200399
3.590092617611648329045693 0.003969317635124568373339304 1.820225374539246931959724
3.595046308805823986887162 0.02739526858010619958516685 1.825589675495966845986118
3.595046308805823986887162 -0.01945663330985709579823428 1.825589675495967068030723
3.584465138868748290690291 -0.04009261761164829851455949 1.815271683345071496162859
3.584465138868749178868711 0.0400926176116483262701351 1.815271683345071274118254
3.579511447674573076938032 -0.01666666666666663521034764 1.80990738238835136009186
3.57388396893167348267184 -0.01440305559583526448519386 1.804953691194175480205786
3.57388396893167348267184 0.0189302777374980718549935 1.804953691194175480205786
3.629209470722354780036767 0.007255422888171056752804056 1.828045952165815890566591
3.632546302527305037699534 -0.0005817592782697682827000585 1.831964543249036125871498
3.633029935217167327721199 0.001549024657992773088693861 1.840588756221504418419954
3.630176736102078027812468 -0.02237306489684492971647956 1.845294378110752031574293
3.630176736102078027812468 0.02547111421283058257936105 1.845294378110752475663503
3.62656463665717554434309 -0.01254509101852915343988659 1.825982877378906410470449
3.617940423684707695883844 -0.02862999840692616662640724 1.828258415835603445387392
3.621068890439748333420766 -0.04058875622150447115554783 1.83894570359498121803199
3.617940423684707695883844 0.02862999840692609376802125 1.828258415835603445387392
3.621068890439748333420766 0.04058875622150436013324537 1.83894570359498121803199
3.62656463665717554434309 0.01254509101852911180652317 1.825982877378906410470449
3.623227804852224842591113 -0.004707908852088328946483564 1.822064286295685953120937
3.620582970787046050986646 0.0005817592782697254567142453 1.820001211508776473024795
3.61195875781457775843819 0.003969317635124580516403636 1.822276749965473507941738
3.605979378907289145672621 0.02534389315387959584757738 1.826615363209080244999427
3.605979378907289145672621 -0.01740525788363048165230396 1.826615363209080244999427
3.337905501795161988809468 0.007013611320564820672540662 1.873934637198452879403021
3.34395275089758126085826 0.02825244644906079599655513 1.879727527089650296332479
3.34395275089758081676905 -0.01422522380793111301811038 1.879727527089650074287874
3.313189580888912466605234 -0.03406288064279714561388701 1.897252461531709899489329
3.310716098146891717135532 -0.00622462424604472777667219 1.894504923063419221662684
3.313189580888912022516024 0.02161363215070780108284509 1.897252461531709677444724
3.334496464545856131422852 -0.021951952921870250545755 1.879924296084026780206955
3.343186356775876610925025 -0.03790550179516263135104381 1.883787660640996453054186
3.326624585449899029754306 -0.02855137419012681102015172 1.887796175179984548009315
3.323868832223563885008843 -0.04450492306341919529488749 1.896486067410005249556093
3.326624585449898141575886 0.02855137419012662713946327 1.887796175179984548009315
3.323868832223563885008843 0.04450492306341908427258502 1.896486067410005249556093
3.334496464545856131422852 0.02195195292187014993179339 1.87992429608402700225156
3.343186356775876610925025 0.03790550179516259665657429 1.883787660640996453054186
3.329215609565141509307296 -0.0007131177933743179393061284 1.87007127264148320655579
3.326572966437539413675495 0.004572168461829201335788753 1.872000797975710728593413
3.318701087341582312006949 0.01117158973008568201290558 1.879872677071668718440378
3.313471851373226861880994 -0.0007131177933743977365860234 1.885815030833398520115907
3.379828282006740458598415 -0.03824197804051850807516288 1.867636678245515158280909
3.367636678245514936236304 -0.03824197804051850807516288 1.87947681723913095908074
3.367636678245514936236304 0.03824197804051847338069337 1.87947681723913095908074
3.379828282006740014509205 0.03824197804051847338069337 1.867636678245515158280909
3.38026221850219110720559 -0.01385877051806841744885368 1.855879010979740728615184
3.373949625720706890774636 0.007716540855783387761746006 1.861758021959481590457131
3.38026221850219110720559 0.02929185222963522766681521 1.855879010979740728615184
3.361758021959481368412526 0.007013611320564818937817186 1.873598160953096947167751
3.355879010979740506570579 0.02858892269441665884288639 1.879559288966972108170239
3.355879010979740506570579 -0.01456170005328698280333555 1.879559288966972108170239
3.64290469894079382839891 -0.001997977920101244066197754 1.864429645432488680256711
3.646452349470397535924349 0.02424005435402597913308043 1.868216339276168813654522
3.646452349470397535924349 -0.02823601019422833716121524 1.868216339276168591609917
3.638893528466060178772068 -0.04290469894079388529783969 1.860881994902885638865087
3.638893528466060178772068 0.04290469894079376733664333 1.860881994902886304998901
3.635345877936457359425049 -0.01666666666666679480490743 1.85709530105920617160109
3.631334707461722821619787 -0.005546276401213353496322256 1.853547650529602908164861
3.631334707461722821619787 0.0277870569321199828438651 1.853547650529603352254071
3.684417024654626615642883 0.01656339197680793684508416 1.882198004667110513565831
3.692208512327313840728493 0.03431374996476773547859906 1.891021546316161039413828
3.692208512327313840728493 -0.001186966011151849645366418 1.891021546316161039413828
3.678946138088097672635968 -0.02615797351961073047288409 1.877862446766804360720471
3.691483279187256716369347 -0.03441702465462647547722597 1.890347950521033659754266
3.670070959094117846177596 -0.04174094886498425777121568 1.877405303467400310424296
3.670070959094117402088386 0.0417409488649841120544437 1.877405303467400088379691
3.678946138088097228546758 0.02615797351961056740887734 1.877862446766803694586656
3.691483279187256272280138 0.03441702465462644078275645 1.890347950521032993620452
3.671879883555467571909503 -0.00840761553165094398243351 1.869712500912881214532035
3.667134230128995753261734 0.001083691321292978241436211 1.866050538807702441346237
3.658259051135015926803362 -0.001997977920101251005091658 1.865593395508298613094667
3.65412952556750791899276 0.02307630427821633425922165 1.868798214314073558028895
3.65412952556750791899276 -0.02707226011841869575680342 1.86879821431407333598429
3.700314214340683083293015 -0.04957610415197208353355052 1.899890318492654106563577
3.700321629431359671258406 -0.01646213383332947172155158 1.899780636985308968078812
3.700314214340683527382225 0.01665183648531335172671142 1.899890318492654106563577
3.700211947924014310729035 -0.04978063698530949682252711 1.899838681147725027997808
3.700211947924014310729035 0.04978063698530926783902828 1.899838681147724805953203
3.700109681507345982254265 0.0496773622954505625348709 1.899787043802795283298224
3.700219363014691342783635 0.01656339197680773561716094 1.899728999640379445423832
3.700109681507345982254265 -0.01655057834183486925594408 1.899787043802795505342829
3.24936008489690131284533 0.04830556962560642736415062 1.948945484728704879984207
3.24872016979380262569066 -0.01666666666666658663809031 1.94851286970970449807794
3.24936008489690131284533 0.01497223629227309796285716 1.948945484728704879984207
3.24851139804376654041107 0.0162491231665953458906948 1.948720169793802359237134
3.248942541396829586375361 -0.01580437996054071675411379 1.949360084896901046391804
3.248942541396829586375361 0.04830262629373133220767045 1.949360084896901490481014
3.249299690596835876732484 -0.0487201697938026492828989 1.94909239051273797116437
3.249090918846800235542105 -0.0487201697938026492828989 1.949299690596836054368168
3.249090918846800235542105 0.04872016979380272561073184 1.949299690596836054368168
3.249299690596835876732484 0.04872016979380272561073184 1.94909239051273797116437
3.29479349036855717614003 -0.006360004232440956070671056 1.910359840848555368353345
3.297396745184278721296778 0.02176681946944963169654486 1.912909917249947300277313
3.297396745184278721296778 -0.03448682793433145710171317 1.912909917249947300277313
3.287360500801433715878375 -0.02925161436270257500624759 1.925900343766209665830047
3.29625622946517360389862 -0.04479349036855725940675654 1.923282736980395313253211
3.273297088950488209491141 -0.03445812399414531490560165 1.939756455533056644924272
3.273297088950488209491141 0.03445812399414532184449556 1.939756455533056644924272
3.287360500801433715878375 0.02925161436270248827007379 1.925900343766209665830047
3.29625622946517360389862 0.0447934903685571761400297 1.923282736980395535297816
3.285897761704817288119784 -0.001124790660812074408886341 1.912977447634370165019391
3.279605287856798945256287 0.01146015703522383633039539 1.918145130821575783386379
3.265541876005853882958263 0.01625206649847036471934203 1.932001242588422984525209
3.257770938002926719434527 0.03404352382594900972012653 1.940689671168064123207841
3.257770938002926719434527 -0.001539390829008287220336371 1.940689671168064123207841
3.312924250840522777394881 -0.04486450299585302559091105 1.907703229630211883005586
3.307703229630212238276954 -0.04486450299585302559091105 1.912856560847324693952487
3.307703229630212238276954 0.0448645029958529423241842 1.912856560847324915997092
3.312924250840522777394881 0.0448645029958529423241842 1.907703229630211883005586
3.313009790922695430026579 -0.03442246057523097590991057 1.902567748502073552430147
3.310356518214458532156641 -0.00622462424604469308220267 1.905135497004146971633531
3.313009790922695430026579 0.02197321208314166954278512 1.902567748502073330385542
3.305135497004147104860294 -0.006360004232440949131777153 1.910288828221260004625037
3.302567748502074351790725 0.02183783209674541175848717 1.912874410936299618413159
3.302567748502074351790725 -0.03455784056162723022476158 1.912874410936299174323949
3.735694727741311282898096 0.01330145052175715943143519 1.929289330852900441470865
3.742847363870655641449048 0.03232951159640164856545752 1.937120753317767896106716
3.742847363870655641449048 -0.005726610552887317559522806 1.937120753317768340195926
3.726282963620657362469046 -0.03569472774131115383466906 1.922136694723556082919913
3.726282963620658250647466 0.03569472774131114689577515 1.922136694723556082919913
3.719130327491313003918094 -0.01666666666666667684371106 1.914305272258688406239457
3.709718563370659527578255 -0.03076740609201810208728212 1.907152636129344047688505
3.709718563370659527578255 0.002565927241315231650820028 1.9071526361293438256439
3.761891866811125417768835 -0.03321868670696968145472638 1.945110553518095475311611
3.763280103128419984415132 -0.009664246337445909357244389 1.940221107036190772987538
3.761891866811125417768835 0.01389019403207801019173306 1.945110553518095253267006
3.758390656646515282091059 -0.04022110703619057037183637 1.943427945445640903088247
3.758390656646515282091059 0.0402211070361904454717461 1.943427945445640236954432
3.754889446481904702324073 0.03685589089128094020253457 1.941745337373185664731068
3.759778892963809404648146 0.01330145052175702759245102 1.938538498963735756674964
3.754889446481904702324073 -0.01025298984776674450503098 1.941745337373185886775673
3.2392592888077818003012 -0.003056016538351233324810607 1.992315305346133769148764
3.231156686384689891156086 0.01490792748724981131580591 1.984630610692267538297529
3.2392592888077818003012 0.03287187151285086983421024 1.992315305346133769148764
3.240421614932309513079645 -0.03421750200660113316875055 1.973963720015678546815252
3.231648414669544777666488 -0.01884811269886885881641447 1.982945692028478923418788
3.239544462749803344081556 -0.03463061069226772148432758 1.991721109698446401381489
3.231648414669543889488068 0.01884811269886883799973276 1.982945692028479145463393
3.239544462749803344081556 0.03463061069226770760653977 1.991721109698446401381489
3.240421614932309513079645 0.03421750200660111929096274 1.973963720015678546815252
3.240807038829960795567331 -0.001301712173339198905241965 1.957891248996699085083151
3.23224039291002940288422 0.016249123166595259154521 1.965782497993398436619827
3.240807038829960795567331 0.03379995850652972588790135 1.957891248996699307127756
3.223467192647264667471063 0.0012972773589343686642672 1.974764470006198813223364
3.223260638304431324741017 -0.000884168673267816452622514 1.975855193022299838290223
3.788281678208947234054449 0.007483360680571621292855866 1.973793335464671061529884
3.794140839104473972298592 0.02909837222285311178482381 1.980009188242764395226914
3.794140839104473972298592 -0.01413165086170984664770689 1.980009188242764395226914
3.780975382602417500521597 -0.03828167820894815692733815 1.967934174569144989419556
3.780975382602417500521597 0.03828167820894813611065643 1.967934174569144989419556
3.775116221706891650455873 -0.01666666666666669072149887 1.961718321791051877767131
3.767809926100361028744601 -0.02138256812849762683592658 1.955859160895525805656803
3.767809926100361028744601 0.0119507652048357008306434 1.955859160895525805656803
3.830251842984795818125576 0.009390221948911293969874947 1.97913837896411459738033
3.834668587954081608870638 -0.0005567320103405855877612418 1.984111855943740732044489
3.837479437254650349586882 0.006178430611477476672166453 1.992723555282244429776028
3.835873541585932855468855 -0.01987845800410049587614303 1.996361777641121992843409
3.835873541585932855468855 0.03223531922705545615936984 1.996361777641121992843409
3.828441238614085140312682 -0.01301143069033253510391468 1.977884506603744707575743
3.819829539275581886670352 -0.02912136534665862169779516 1.981904552949201203659868
3.824450992946861305199491 -0.04272355528224464765729707 1.991770124648074791195995
3.819829539275581442581142 0.02912136534665859394221954 1.981904552949201203659868
3.824450992946860417021071 0.04272355528224464071840316 1.991770124648074791195995
3.828441238614085140312682 0.01301143069033249693999821 1.977884506603744707575743
3.82402449364479979365683 -0.003064476731080655221017839 1.972911029624118572911584
3.822213889274089559933145 0.0005567320103405460143819461 1.971657157263748683106996
3.813602189935585418112396 0.007483360680571621292855866 1.975677203609205179191122
3.806801094967792842282961 0.02721450407831893514298827 1.98095112231503134303523
3.806801094967792842282961 -0.01224778271717566653642439 1.98095112231503134303523
3.243255142608858054842358 -0.01423602553758764738267573 2.007960177955681047023972
3.246627571304428805376574 0.0123524504046040629889891 2.005803069824649398356087
3.246627571304428805376574 -0.04082450147977943755162045 2.005803069824649842445297
3.245748201714720337918152 -0.04325514260885837680703503 2.004587749260110296489756
3.245748201714720337918152 0.04325514260885846701265578 2.004587749260109852400547
3.242375773019149143294726 -0.0166666666666665727603025 2.006744857391141501068432
3.24486883212501187045973 0.00816307009610828943069194 2.003372428695570750534216
3.24486883212501187045973 0.04149640342944161536253844 2.003372428695570750534216
3.288737843174641461985175 -0.004034510952000206797374293 2.042772354126641154437038
3.280210390397359176972714 0.01484353063461578761672577 2.035544708253282042420551
3.288737843174641461985175 0.033721572221231788102358 2.042772354126641154437038
3.272982744523999620867016 -0.03554470825328266692100243 2.027321008024514092937807
3.272982744524000509045436 0.03554470825328265998210853 2.027321008024513648848597
3.257227645873359112016487 0.004642016049028257693165322 2.011869661922386587349365
3.264455291746717779943765 -0.01423602553758774452719038 2.020093362151154980921319
3.257227645873358667927278 -0.03311406712420373460448175 2.011869661922387031438575
3.845228021402582019305783 -0.006889733751984376125543363 2.009660445054758159955099
3.847614010701291054061812 0.02167162098393170255317131 2.012162922213390547909739
3.847614010701291054061812 -0.03545108848790046174315194 2.012162922213390547909739
3.842369892673696885054824 -0.04522802140258275205297878 2.00727445575604956928828
3.842369892673696440965614 0.04522802140258275205297878 2.00727445575604956928828
3.839983903374987850298794 -0.01666666666666665602702935 2.00477197859741673724443
3.837125774646101383780206 0.00140645201406023570740722 2.00238598929870814657761
3.837125774646101383780206 0.03473978534739356749394545 2.00238598929870814657761
3.885171955013904998565977 0.01421208831800257685329392 2.030267422478428951393425
3.892585977506952676918672 0.0327173766652412503774805 2.038292777477716199996394
3.892585977506952676918672 -0.004293200029236103609786568 2.038292777477716199996394
3.868971643283517725109277 -0.0298404633954524080297066 2.017133021602945053274425
3.882972564140957594247539 -0.03517195501390534689845069 2.029906653286053241913578
3.859718999109897907828781 -0.04466850838154706737626043 2.014607465567238797632399
3.859718999109897907828781 0.04466850838154707431515433 2.014607465567238797632399
3.868971643283517725109277 0.02984046339545242190749441 2.017133021602945497363635
3.882972564140957594247539 0.03517195501390535383734459 2.029906653286053686002788
3.871171034156465129427716 -0.01133517504821372930134959 2.017493790795320762754272
3.86458413579207249455294 0.001838621680572014027710281 2.012745514111499822718088
3.855331491618452677272444 -0.006889733751984380462352053 2.010219958075794011165272
3.852665745809226383045143 0.02111210796289601787645296 2.01244267872390869555943
3.852665745809226383045143 -0.03489157546686478400532749 2.01244267872390825147022
3.910263697529176241118876 -0.03594701201640305987528023 2.046210709545579042867303
3.910815784446219467440642 -0.01019225959191121660962764 2.042421419091158263370289
3.910263697529176685208085 0.01556249283258073767832741 2.046210709545579042867303
3.907026493991798687943628 -0.04242141909115863113166611 2.044983420371247362368194
3.907026493991799132032838 0.04242141909115851317046975 2.044983420371246918278985
3.903789290454421134768381 0.03996684074249441664949956 2.043756131196914793690667
3.907578580908841914265395 0.01421208831800246409626798 2.041194129916826138781971
3.903789290454421134768381 -0.01154266410648938437355504 2.043756131196914793690667
3.296596178782423613995434 -0.01539625259896044984220254 2.054039028251429588323163
3.298298089391212162269085 0.01453325951679663476101556 2.052972324676494597639476
3.298298089391212162269085 -0.04532576471471752577180325 2.052972324676494597639476
3.297386521375186507754051 -0.04659617878242375277331178 2.052337117642641040049512
3.297386521375186507754051 0.04659617878242375277331178 2.052337117642641040049512
3.2956846107663979594804 -0.01666666666666666990481716 2.053403821217576030733198
3.296474953359160853239018 0.01143970941703953761447998 2.051701910608788370637967
3.296474953359160853239018 0.04477304275037287395466734 2.051701910608788370637967
3.349761264538822835845622 0.04862346270277609350252135 2.098862198163952363927365
3.349522529077646026962611 -0.01666666666666685031605866 2.099072995890211235092693
3.349761264538822835845622 0.01529012936944276410122789 2.098862198163952363927365
3.34043303721213513668431 -0.001512317064355327925900818 2.09194535427649075387535
3.331582280807801499378229 0.01618919574431314928331105 2.08460691493651184558189
3.348608832490679532156719 -0.04952252907764666256529296 2.09815929930324518437601
3.324005106006645782201758 -0.03436817947533514494562468 2.076152630104854068804343
3.331942165824012924701947 -0.04952252907764667644308076 2.082577372857866482291911
3.339519340625168641878417 0.03436817947533495065659537 2.091031657689523814980248
3.323091409419678843306656 0.03484565039768847127810147 2.075238933517886685820031
3.348608832490679532156719 0.04952252907764648215405145 2.09815929930324429619759
3.307577174801155539540787 0.002782731132061360204699163 2.060359905933217383733336
3.315154349602311700806467 -0.01539625259896044984220254 2.068814190764874716421673
3.307577174801155983629997 -0.03357523632998225815438076 2.060359905933216939644126
3.351132786145557762580438 -0.04864666221597403750198652 2.099779448361532629974135
3.350897220530480780098515 -0.01575443215957630233026165 2.099558896723064282952009
3.351132786145557762580438 0.01713779789682161325270471 2.099779448361531741795716
3.350676668892012433076388 -0.04955889672306457854888961 2.099329915174097394015007
3.350676668892012877165598 0.04955889672306440507654202 2.099329915174096949925797
3.350220551638467103572339 0.04865983034819402336390581 2.098880381986661713966669
3.350441103276934562416045 0.01576760029179610084204555 2.099109363535629046992881
3.350220551638467103572339 -0.01712462976460163432967931 2.098880381986662158055879
3.938375091411953299314064 0.007586160911594833251847536 2.073751322377176187217174
3.944187545705976294385664 0.02929458565688222715373001 2.080065281872284010944441
3.944187545705976738474874 -0.01412226383369255718058799 2.080065281872284010944441
3.930758082576687684195349 -0.03837509141195406120461442 2.067938868083153192145573
3.930758082576687684195349 0.03837509141195405426572052 2.067938868083153192145573
3.924945628282664689123749 -0.01666666666666666990481716 2.061624908588045368418307
3.917328619447398629915824 -0.02181716817995704715826832 2.055812454294022373346706
3.917328619447399518094244 0.01151616515337628744719556 2.055812454294022373346706
3.975539725646024535876677 0.0003992571532951546490336492 2.074859531507270649086649
3.97556930568798350122961 -0.0003400970693768909846807502 2.075229208618606158154307
3.967576427903934277452436 -0.01564565849872071728876577 2.083732590486627955783661
3.959553970077926088322329 -0.03271158231868254162577614 2.091866295243313800256146
3.959553970077926976500748 0.001420265321241103795638083 2.091866295243313800256146
3.97349219947176379719167 -0.004494309501816085364311881 2.073152102402386454116368
3.964988817603741555473107 -0.02082087909910585940553851 2.077115231392872463089816
3.959043465993953958559359 -0.03373259048662848036403972 2.087326042365778011600241
3.964988817603741555473107 0.02082087909910585593609156 2.077115231392872463089816
3.95904346599395307038094 0.03373259048662848036403972 2.087326042365777567511032
3.97349219947176379719167 0.004494309501816084496950143 2.073152102402386454116368
3.973462619429804831838737 -0.003754955279144040706379437 2.07278242529105094504871
3.971415093255544093153731 0.0003400970693768906594200985 2.071074996186166750078428
3.962911711387522295524377 0.007586160911594833251847536 2.075038125176652759051876
3.956455855693760348401611 0.02800778285740553388838414 2.080708683272022518906397
3.956455855693761236580031 -0.01283546103421586911941255 2.080708683272022074817187
3.398059577980951040387936 0.03899910993883090593037366 2.140939531957879893298013
3.396119155961902169593714 -0.01666666666666679133546047 2.142559132950366596048752
3.398059577980951040387936 0.005665776605497573059633254 2.140939531957880337387223
3.387191657676694056533506 -0.001188329903748337138674751 2.138379987580442787020729
3.380204581410535702445941 0.01278582262856845300214026 2.132581241218032719331177
3.365436394097546912718144 -0.04561109156913295548108067 2.114980276844002027303304
3.381849028567829762437214 -0.04611915596190190036463008 2.127832888302748859388203