# geometry NO_DATA 904
#  x  y  z
3.548146576806322727293264 0.03889365790546930878868181 1.59074708109914642051308
3.546293153612645188133001 -0.01666666666666667684371106 1.592593405759057390014277
3.548146576806322727293264 0.005560324572135973315856194 1.59074708109914642051308
3.53498352341866795001124 -0.005952593721287759501170633 1.596293153612645454586527
3.525527316418367806960532 -0.03557908066726671314494723 1.598146576806322771702185
3.525527316418367806960532 0.02367389322469120108149987 1.59814657680632254965758
3.544479868469269767672358 -0.04629315361264563222221113 1.590780120615681969553634
3.533170238275292973639807 -0.04629315361264563222221113 1.594479868469270034125884
3.533170238275292973639807 0.04629315361264561140552942 1.594479868469270034125884
3.544479868469269767672358 0.04629315361264561140552942 1.590780120615681969553634
3.581417275764771535051523 -0.01668399490496606796252621 1.598101270669737949958744
3.568556731877777998818146 0.01285187976784327515411555 1.596202541339475811099646
3.581417275764771090962313 0.04238775444065262520965121 1.598101270669737505869534
3.566658002547516304048258 -0.04620254133947602342979977 1.594401522816149885386494
3.566658002547516304048258 0.04620254133947600261311806 1.594401522816149441297284
3.551898729330261517134204 0.03880304563229969305737654 1.590701774962561376725034
3.553797458660523211904092 0.009267170959490346471287836 1.592502793485887746527396
3.551898729330261517134204 -0.02026870371331900011480087 1.590701774962561376725034
3.442456517525780412825043 0.004161226258271173185365743 1.611704708732490276545946
3.434913035051560648014402 -0.01666666666666666990481716 1.619537130654916445848812
3.442456517525780412825043 -0.0291721070750621674916303 1.611704708732490276545946
3.419266225324059327306259 -0.01462695278833705744836458 1.634913035051561713828505
3.411162898070777771408757 -0.03287332117323224500715639 1.642456517525780812505332
3.411162898070777771408757 0.003619415596558123171533339 1.642456517525780812505332
3.427430630387664933778069 -0.03491303505156184705526812 1.61205472599102073161248
3.411783820660164057159136 -0.03491303505156184705526812 1.627430630387665999592173
3.411783820660164057159136 0.03491303505156184705526812 1.627430630387665999592173
3.427430630387665377867279 0.03491303505156184705526812 1.61205472599102073161248
3.491699069606919891839425 0.0002506440576287100800538521 1.608551574450708621100148
3.48339813921383978367885 -0.01666666666666666296592325 1.616824391635733881855685
3.491699069606919891839425 -0.03308268927570461037657168 1.608551574450708621100148
3.474980360765276721224382 -0.0001688902304583029851010878 1.62514925099573503963768
3.474863512709794211019698 6.480588050625918621755472e-05 1.625201293170710936664136
3.475549353509551853136372 -0.03339813921383959216537818 1.608975605931446617447023
3.466614624491690221930185 -0.01690036277763123234718634 1.618074276992170101863167
3.45888268684288480159239 -0.03339813921383959910427208 1.610173449112906940428047
3.467131575060989678860324 0.01690036277763123234718634 1.617300465291447775229017
3.458765838787402735476917 0.03350222356379163601847182 1.610225491287883059499109
3.475549353509551853136372 0.03339813921383959216537818 1.608975605931446617447023
3.458248888218103722635988 0.002750414770500956510718149 1.610999302988605386133258
3.466497776436208599903921 -0.01408514212662401350606434 1.618126319167146220934228
3.458248888218103278546778 -0.03092069902374898482388943 1.610999302988605386133258
3.506115527989374758277563 -0.04867421563162333680852001 1.600758491516685255717789
3.500758491516685388944552 -0.04867421563162333680852001 1.600851410605246272211843
3.500758491516685388944552 0.0486742156316233298696261 1.600851410605246272211843
3.506115527989374758277563 0.0486742156316233159918383 1.600758491516685033673184
3.511376965129566318779553 -0.03796014268624442467015001 1.600662892184188113020582
3.506682820841065861827701 -0.005952593721287766440064537 1.601325784368376137223322
3.511376965129566762868762 0.0260549552436689091372557 1.600662892184187890975977
3.50132578436837649249469 -0.01648082848954423099141486 1.601418703456937819851191
3.50066289218418802420274 0.01552672047541244111645842 1.600848730361310368053296
3.50066289218418802420274 -0.04848837745450088748677686 1.600848730361310590097901
3.599610746710586894892003 -0.01654205497187984444384945 1.600451559136805812499915
3.599805373355292381631898 0.01640202507204104043214699 1.600319238339492855516255
3.599805373355292381631898 -0.04948613501580071544205808 1.600319238339492855516255
3.59789797990588100518039 -0.04961074671058755131136664 1.600256932492099437581601
3.59789797990588100518039 0.04961074671058753049468493 1.600256932492099437581601
3.597703353261175074351286 -0.01666666666666668031315801 1.600389253289412394565261
3.595990586456469628728883 0.01246262647843082368992462 1.600194626644706019646947
3.595990586456469628728883 0.04579595981176415309121808 1.600194626644706019646947
3.637220807132446331877418 -0.001787091930748727856143043 1.620218980235511363474643
3.643610403566223343574393 0.01876704853503173564543971 1.621269171169693823486568
3.643610403566223343574393 -0.02234123239652921477649272 1.621269171169693823486568
3.612352030564727645156609 -0.03455695062493549518656266 1.608464556765614172917367
3.627686768977638642752481 -0.03722080713244713123799556 1.614572415879817146588948
3.602074960331837161220392 -0.04733614349248835978523076 1.602137266179231023244256
3.602074960331837161220392 0.04733614349248831121297343 1.602137266179231023244256
3.612352030564727645156609 0.03455695062493546743098705 1.608464556765614172917367
3.627686768977638198663271 0.03722080713244714511578337 1.614572415879817146588948
3.621886068719535334281545 -0.01400281015915500609780864 1.614111121121308389803062
3.612940926740400904293438 0.003887473799113777550573445 1.609053452941287654098801
3.602663856507510864446431 -0.01654205497187987566887202 1.602726162354904726470295
3.601331928253755254587531 0.01412742185394181768098854 1.60145653994854209045684
3.601331928253754810498322 -0.04721153179770152391592219 1.60145653994854209045684
3.669101802804616063724552 -0.02703201327247999746772322 1.646133816077095746166492
3.665350177286664123954552 -0.001431047784955282592411763 1.642267632154191137061616
3.669101802804616063724552 0.02416991770256941146621799 1.646133816077095746166492
3.66148399336376018098349 -0.04226763215419136049399995 1.636906936778387944286806
3.66148399336376018098349 0.04226763215419138131068166 1.636906936778387944286806
3.653866183922904298242429 0.0238138735567759649014441 1.627680057479679920362514
3.6577323678458086853027 -0.001787091930748730241387823 1.63304075285548333518193
3.653866183922904298242429 -0.02738805741827344403249711 1.627680057479679920362514
3.349217246503362943599313 0.0452938433506321208588119 1.696076596847269080114984
3.348434493006726242469995 -0.0166666666666666594964763 1.696864168178678911047541
3.349217246503362943599313 0.01196051001729879145751845 1.696076596847269080114984
3.346854574883133981444416 0.01350683041948213744531948 1.698434493006725887198627
3.346057410256178421548157 -0.01826099592057734560812676 1.69921724650336281037255
3.346057410256178421548157 0.04527465675954162049876572 1.699217246503363032417155
3.347652051132603112648667 -0.04843449300672614254992254 1.696081726304555781226213
3.346072133009010407533879 -0.04843449300672614254992254 1.697652051132602979421904
3.346072133009010407533879 0.04843449300672615642771035 1.697652051132602979421904
3.347652051132602668559457 0.04843449300672615642771035 1.696081726304556003270818
3.392197226725228720312089 0.002360558337004687624871568 1.660163331611776982299489
3.3843944534504566412636 -0.01666666666666668031315801 1.668377505893730017305643
3.392197226725228720312089 -0.03097277499632864611323058 1.660163331611776982299489
3.368520076516113181952505 -0.01508208720201958952245036 1.683602163718131983216608
3.3604484728565418016899 0.001061120117122102413098617 1.690612647260580914121419
3.376601640453657182661118 -0.03439445345045544222273293 1.660584692896931224836976
3.359656183124218209457013 -0.03280987398580835490147223 1.689834612164857086114012
3.359934973786990131117136 -0.03439445345045544222273293 1.675031315625609362740533
3.360727263519313723350024 0.03280987398580834102368442 1.675809350721333190747941
3.351863370127419194943741 0.04841542053535291545429686 1.682041799168058293645345
3.376601640453657182661118 0.03439445345045542834494512 1.660584692896931224836976
3.35079228973232368105073 0.04527477087925888682429232 1.696067060611582633100625
3.351584579464646829194407 0.01352601701057264127481261 1.696845095707306017018823
3.35079228973232368105073 -0.0182227368581136042746671 1.696067060611582633100625
3.405435987855759183418058 -0.04158485297503965172349893 1.654416130916593452582219
3.404416130916594340760639 -0.04158485297503965172349893 1.655065850026534501893138
3.404416130916594340760639 0.04158485297503963784571113 1.655065850026534501893138
3.405435987855759183418058 0.04158485297503963784571113 1.654416130916593452582219
3.406247287390810729590385 -0.03954513909671004273649331 1.654207573512480156097126
3.409435003964125687758724 -0.014626952788337062652535 1.65841514702496017896749
3.406247287390810729590385 0.0102912335200359174314233 1.654207573512480156097126
3.408415147024960845101305 -0.01536722844678408035623551 1.659064866134901450323014
3.404207573512480600186336 0.009550957861588897992999314 1.655507011732362698808174
3.404207573512480600186336 -0.04028541475515706044019382 1.655507011732362698808174
3.69756764723595354737995 0.03640176506770229775122871 1.688834117831748971028105
3.695135294471906917124215 -0.01666666666666666990481716 1.690768529769804517925991
3.69756764723595354737995 0.003068431734368962278403092 1.68883411783174919307271
3.686279380440216080216942 -0.001045161396713357006629797 1.687324541836929370219877
3.679855819172573649922242 0.0118019611385727744845564 1.681946141965999785838903
3.675971208216588514972045 -0.03689712472567964474112756 1.668353398775733298364798
3.688518790010142822666239 -0.04513529447190612470253157 1.676534215867184318682348
3.676164151410709735046112 -0.02127561945572633075873803 1.677209312807423025049047
3.676164151410709735046112 0.02127561945572632035039717 1.677209312807423025049047
3.675971208216588514972045 0.03689712472567964474112756 1.668353398775733076320194
3.688518790010142822666239 0.04513529447190611776363767 1.676534215867184318682348
3.669354703754824420514069 -0.02652621137206215978787682 1.654119084873113543210366
3.665855979187082169801215 -0.001431047784955299939646522 1.658238169746226731149363
3.669354703754824420514069 0.02366411580215155643913683 1.654119084873113099121156
3.666048922381202945786072 0.001045161396713345514086768 1.667094083777916679878217
3.669740590143066860662202 -0.008428496920440202086477477 1.671830912936493440668073
3.710557751981161889176519 -0.03738523342747931965668329 1.697942985408640748090647
3.708364397877620177723657 -0.008165929276864521482726111 1.695885970817281540590216
3.710557751981161889176519 0.02105337487375028016067802 1.697942985408640748090647
3.70630738328626074817862 -0.04588597081728146981349781 1.693576220706538792981632
3.70630738328626074817862 0.0458859708172814628746039 1.693576220706538792981632
3.702057014591359607180721 0.03715244141307764286219495 1.689209456004436837872618
3.704114029182719036725757 0.007933137262462842953514297 1.691519206115179585481201
3.702057014591359607180721 -0.02128616688815196389406026 1.689209456004437059917223
3.293757861655628893515768 0.01248862509365646078496326 1.718730763438027553391407
3.28751572331125752057801 -0.01666666666666666296592325 1.725002174202457050355974
3.293757861655628893515768 -0.02084470823967687208577715 1.718730763438027553391407
3.274867641438245602358847 -0.008629497079356944488903736 1.737515723311257476169089
3.268461697909605057077442 -0.02947855372394791312329332 1.743757861655628627062242
3.268461697909605057077442 0.0122195595652340206760389 1.743757861655628627062242
3.281276005024141184662767 -0.03751572331125763160031283 1.718762455915340492396126
3.268627923151129710532814 -0.03751572331125763160031283 1.731276005024141362298451
3.268627923151129266443604 0.03751572331125763160031283 1.731276005024141362298451
3.281276005024141628751977 0.03751572331125763853920674 1.718762455915340492396126
3.340383619345320909133079 0.0006820605557013959896819899 1.710298441210381215071834
3.333203355089436659142166 -0.01504258906746957537292619 1.718160766021966878724925
3.323652687341902112194703 -0.004058746427600426649739962 1.727711433769501869761598
3.321282283850250927059733 0.0006820605557013887255274343 1.72939977670545119714518
3.325231284161884293126832 -0.03239131628983762944962166 1.710188695094413846575776
3.331643669093774295930643 -0.04837592240080289263115532 1.701514331483229724994999
3.31497832373071776856932 -0.02140747364996848159379716 1.723190187716183707777873
3.309376656294816143599746 -0.0340153938890347257162361 1.713529773852681348245142
3.315680616414349302090159 0.02140747364996847812435021 1.719739362841949059657054
3.307006252803164958464777 0.03739207976093375518367168 1.715218116788630897673329
3.339615740021327106035187 0.03239131628983762944962166 1.709486402410782535099543
3.32446340483789004593973 0.0340153938890347257162361 1.709376656294815610692694
3.346796004277210911936891 -0.0166666666666666594964763 1.701624077599197093491057
3.346028124953216664749789 0.01188275282028503944398157 1.700812038799598413518765
3.346028124953216664749789 0.0452160861536183705799985 1.700812038799598413518765
3.306303960119533869033148 0.01236498154333257222525777 1.718668941662865323749543
3.312607920239067027523561 -0.008360431550934516523043705 1.72487853065213281311685
3.306303960119533869033148 -0.02908584464520159312828085 1.718668941662865545794148
3.745195299861151738696208 0.0223549906891506514061696 1.727159690827998694828693
3.740390599722303921481625 -0.0166666666666666594964763 1.731372795205726955458658
3.745195299861151738696208 -0.01097834264418267799512385 1.727159690827998250739483
3.731606025610646248935609 -0.0009024815566493574756426477 1.732508507167295208617475
3.727626151637836393604175 0.007057266388970542814185194 1.729431114751134757057116
3.718473484527660133380778 -0.03566830111242406953220296 1.714223115832758326249063
3.732779001889386272239335 -0.04039059972230386180713779 1.719510828677908609307678
3.722105208387767483202424 -0.0199041160024067617650978 1.72300768994441644288429
3.722105208387767483202424 0.01990411600240678258177951 1.72300768994441644288429
3.718473484527660133380778 0.03566830111242408340999077 1.714223115832758326249063
3.732779001889386272239335 0.0403905997223038687460317 1.719510828677908609307678
3.710861886694742484138487 -0.03677696400031805340491431 1.702361149304939980098084
3.708972667304781367647593 -0.008165929276864512809108732 1.704722298609879782560483
3.710861886694742484138487 0.02044510544658902431724989 1.702361149304939980098084
3.712604391164888717469239 0.0009024815566493760154997972 1.713506872721537677151105
3.71812533441495762787099 -0.01194436805678686375209452 1.719930297528255991323931
3.77302826731406515392564 -0.02255173076638693555051596 1.745579998080452499564785
3.768144136536354160682549 0.001941598727851028688418111 1.741159996160904777084966
3.77302826731406515392564 0.02643492822208898945790523 1.745579998080452499564785
3.763724134616806882291939 -0.04115999616090462720485732 1.736562193563875533541818
3.763724134616806882291939 0.04115999616090462720485732 1.736562193563875755586423
3.75442000191954727839061 0.02312438712775141680388913 1.727544389047299233652666
3.758840003839095444959639 -0.001368942366486549603449285 1.732142191644328033106603
3.75442000191954727839061 -0.02586227186072451167397901 1.727544389047298789563456
3.242617915462411737337334 0.005541062398191646566625312 1.76292314693577978346184
3.235235830924823918763877 -0.01666666666666667337426411 1.770388446661507408919078
3.242617915462411737337334 -0.02779227093514168370202988 1.76292314693577978346184
3.220048380084379324728161 -0.0137082350142224366346122 1.785235830924823297038984
3.212243013781522993355111 -0.03227739927237921468972104 1.79261791546241155970165
3.212243013781522993355111 0.004860929243934351828837492 1.79261791546241155970165
3.227858335766696118440677 -0.03523583092482344969464947 1.763010951503379830640483
3.212670884926251524404961 -0.03523583092482344969464947 1.777858335766695718760388
3.212670884926251524404961 0.03523583092482344969464947 1.777858335766695718760388
3.227858335766696118440677 0.03523583092482344275575556 1.763010951503379830640483
3.278701010689006878351393 0.0003899577428903402477079754 1.771688947053883023130538
3.277142973651670843082684 -0.003506031817561535996602418 1.773636941834109137516862
3.274613556478840781238659 -0.001552802528099017469187526 1.776166359006938977316281
3.273642176343345866484924 0.000389957742890339000875477 1.776747781399543590907797
3.269077653896430568636333 -0.02056265622711852397719312 1.765571622078868863070511
3.264567926485307580719564 -0.03683936515089488578089671 1.757043309874090519784318
3.266085244274062659997071 -0.01860942693765600328137388 1.769457329205511797454164
3.258991304654316856215246 -0.03372329107622364097185397 1.760810587057666909416298
3.266548236723600062703099 0.01860942693765603450639645 1.768101039251698924914535
3.258019924518821941461511 0.03488613586143237549341833 1.761392009450271523007814
3.272633246240547411076705 0.02056265622711855867166264 1.765108629629330794230668
3.263009889447971545450855 0.03372329107622365484964178 1.758991304654316412126036
3.274191283277883446345413 -0.01666666666666664908813544 1.76316063484910490188895
3.268123518829423979070725 -0.02179013192846204760577677 1.756580317424552450944475
3.268123518829423534981515 0.01154320140487128699968711 1.756580317424552450944475
3.257556932069283650577063 0.005191367334800582773735034 1.762748299404084173502838
3.265113864138567301154126 -0.01302810185996511327388703 1.77003875159811596695647
3.257556932069283650577063 -0.03124757105473082580138211 1.762748299404083951458233
3.792942229334759218772888 0.009811118896598094996086559 1.766868889561838962265483
3.78588445866951817109225 -0.01666666666666667684371106 1.772847788783058042838547
3.792942229334759218772888 -0.02352221443673523787465385 1.766868889561838962265483
3.777323479278041240547736 -0.000455292116286669032443335 1.777778771394327828048176
3.775820270551805357683861 0.002551125336184763628399885 1.776730854784378532684741
3.774418575760172700483963 -0.02487336454654207745784689 1.765114443062913540671843
3.785579695365351771130236 -0.03588445866951812251999243 1.763238892781632261019809
3.773220130338103661671312 -0.00866198999616206617713221 1.773675422454390027127147
3.773220130338103661671312 0.008661989996162036686833119 1.773675422454390027127147
3.774418575760172700483963 0.02487336454654205664116517 1.765114443062913540671843
3.785579695365351771130236 0.03588445866951810864220462 1.763238892781632261019809
3.774113812456005412343529 -0.0203806404825062625896237 1.755505547061487980897709
3.770315226820234677518329 0.001941598727851019364279428 1.761011094122975961795419
3.774113812456005412343529 0.02426383793820830608867212 1.755505547061487980897709
3.769116781398166082794887 0.0004552921162866383495218536 1.769572073514452448250722
3.771716921611867778807436 -0.00565557254369063351628899 1.772627505844440953808316
3.834037849195850444772304 -0.009597780539506906363755867 1.793635629735357728264944
3.826565479994888718806578 0.01100681226454206830533966 1.787271259470715634165572
3.834037849195850444772304 0.03161140506859105858694647 1.793635629735357728264944
3.820201109730246180617996 -0.03727125947071565498225354 1.780598959848897822055847
3.820201109730246180617996 0.03727125947071564110446573 1.780598959848897822055847
3.806364370264642360552898 0.01119791969779562745834767 1.767562289962437915846749
3.81272874052928445465227 -0.009406673106253361088535669 1.774234589584255505911869
3.806364370264642360552898 -0.0300112659103023357576312 1.767562289962437915846749
3.192275862646249073861782 0.003105274135147095652953464 1.810829411488897644488816
3.184551725292497970087879 -0.01666666666666667684371106 1.81882849971382243303708
3.192275862646249073861782 -0.0302280591981862363504252 1.810829411488897644488816
3.168307572330444799035831 -0.01582163925744110855031721 1.834551725292497881270037
3.159787556722140955400846 -0.03370669788327285837370439 1.84227586264624898504394
3.159787556722140955400846 0.002063419368390645609878664 1.84227586264624898504394
3.176836148551026361985805 -0.03455172529249842666709824 1.811112922972350824935006
3.160591995588973190933757 -0.03455172529249841972820434 1.826836148551026273167963
3.160591995588972302755337 0.03455172529249841278931044 1.826836148551026273167963
3.176836148551027250164225 0.03455172529249841972820434 1.811112922972350824935006
3.225061328992282483341114 9.95226372446576023418803e-06 1.824948623271442693649647
3.225038128693934247337438 -5.635286041974415247382546e-05 1.824981775833514952012138
3.224992571190183898721671 -3.476214708037621574279047e-05 1.8250273333372650785833
3.224970213984781786109579 9.952263724467987930839309e-06 1.825039738278943168836577
3.21698088212469190949605 -0.01673297179081085356289194 1.816924529264272836215355
3.21012178848571894107522 -0.03338968619375311253083538 1.808586219799076966197049
3.216654261724988916881784 -0.01671138107747148493498202 1.817632464960060589831414
3.208619372361149135741698 -0.03334328559705774380761412 1.80956281344914016173675
3.216935324620942004969493 0.01671138107747154044613325 1.816970086768022740741912
3.208597015155747023129607 0.03336809548041377165850108 1.809575218390818029945422
3.218179035054961278916608 0.01673297179081090907404317 1.816643466368319304038437
3.210098588187371149160754 0.03334328559705777850208364 1.80861937236114922455954
3.218202235353308626741864 -0.01666666666666664214924154 1.816610313806247045675946
3.211319941415987422317357 -0.03031854882046929738903529 1.808305156903123434020131
3.211319941415987422317357 0.003014784512864039384832937 1.808305156903123434020131
3.208315952259793490952688 0.001921644323062444981164987 1.810237596582855879034923
3.216631904519586360180483 -0.01477978449068462901694332 1.817644869901738680084691
3.208315952259793490952688 -0.03148121330443172383173334 1.810237596582855879034923
3.838822124126568091639911 -0.014024168818953382589787 1.812499124797288363453163
3.844411062063284312273481 0.00813128864094843362142484 1.808231435784429130819717
3.844411062063284312273481 -0.03617962627885518145376409 1.808231435784429130819717
3.841581134862221524883807 -0.03882212412656848438130552 1.806910186860572142819592
3.841581134862221524883807 0.03882212412656846356462381 1.806910186860572142819592
3.835992196925506192428657 -0.01666666666666668378260496 1.811177875873431597497643
3.838751207661159625672553 -0.0001710636088894471886715648 1.805588937936715598908677
3.838751207661159625672553 0.03316226972444388798599846 1.805588937936715598908677
3.899992676208818842553683 0.04995712628978866975959505 1.849964450080971101186833
3.899985352417635997568368 -0.01666666666666668378260496 1.849971239353712215702785
3.899992676208818842553683 0.01662379295645533688885465 1.849964450080971101186833
3.89072578454153417126804 -0.001852469085537667261090466 1.842578253627071172005003
3.881473540456614301774607 0.01665201908430217342393931 1.835178478627688791746664
3.899971411460825265749008 -0.04998535241763554792804314 1.849957298396901039794216
3.874066441666049520620163 -0.03517115483650651297509171 1.827240159675443509357251
3.883304744794158214205027 -0.04998535241763553405025533 1.834625993718014491662416
3.890711843584722551270261 0.03517115483650649215841 1.842564312670259996096433
3.874052500709237456533174 0.03518580241887096782260613 1.827226218718632111404077
3.899971411460825265749008 0.04998535241763552711136143 1.849957298396901039794216
3.857407098790564425883076 0.004494966933250932675236733 1.811902065723815624664894
3.86481419758112920703752 -0.014024168818953382589787 1.819840384676060907054307
3.857407098790564425883076 -0.0325433045711576718339586 1.811902065723815624664894
3.900036540659516326456924 -0.04995648419258666428355298 1.849993024852103040700513
3.900028733051604579173954 -0.01663710115504788561446858 1.849986049704205770538579
3.900036540659516326456924 0.01668228188249089652406276 1.849993024852103040700513
3.900021757903707086967415 -0.04998604970420545551279545 1.849978911788179525288456
3.900021757903707531056625 0.04998604970420544857390155 1.849978911788179525288456
3.900006975147898291567117 0.04995782357635859122213517 1.849964798724256009876399
3.900013950295795339684446 0.01663844053881980214470993 1.849971936640282255126522
3.900006975147898291567117 -0.01668094249871896958548056 1.849964798724256009876399
3.099869997177286506939708 0.04921718049088772556354243 1.899347183313601528098502
3.099739994354572480972365 -0.01666666666666667684371106 1.899478587422729791711618
3.099869997177286506939708 0.01588384715755439269280203 1.899347183313601528098502
3.099478166153094793600076 0.01614301026371224925815007 1.899739994354572303336681
3.099346340774332020373549 -0.01693031742419350699213609 1.899869997177286329304025
3.099346340774332020373549 0.04921633795161801244733013 1.899869997177286329304025
3.099610180792887526024515 -0.04973999435457243656344417 1.899348773861045502897582
3.099348352591410282741435 -0.04973999435457243656344417 1.899610180792887792478041
3.099348352591410282741435 0.04973999435457242268565636 1.899610180792887792478041
3.099610180792887526024515 0.04973999435457242268565636 1.899348773861045502897582
3.142168515947794560361217 0.001703442482965210683087953 1.859534926535170606953784
3.134337031895588765451066 -0.0166666666666666664353702 1.868020237189276899769652
3.142168515947794560361217 -0.03162989085036811698348203 1.859534926535170828998389
3.117803441151249188578731 -0.01640051482201218893686168 1.884203955973261290779419
3.109101334459115406616547 0.001003698562255470830978377 1.891902364103139833062528
3.126522927806540952389014 -0.03433703189558880847220834 1.860206133100228864662995
3.10896825853678837603411 -0.03407088005093433791259372 1.891774033093624796109111
3.109856261139873900845032 -0.03433703189558881541110225 1.87626152087469844076395
3.109989337062201375516679 0.03407088005093432403480591 1.876389851884213699761972
3.101154154447740118882848 0.04973384815534551833815513 1.883959929004576761002454
3.126522927806540952389014 0.03433703189558880153331444 1.860206133100228864662995
3.100133075922326675311069 0.0492110342916608281549351 1.899344110213988301438803
3.100266151844654149982716 0.01614385280298196584380932 1.89947244122350333839222
3.100133075922326675311069 -0.01692332868569688258952866 1.899344110213988301438803
3.151898224206590271023742 -0.04726019651997304810153722 1.851475710501977456345912
3.151475710501977278710228 -0.04726019651997305504043112 1.85182558246233264220848
3.151475710501977278710228 0.04726019651997304810153722 1.851825582462332420163875
3.151898224206590271023742 0.04726019651997304810153722 1.851475710501977234301307
3.15221492914923873129851 -0.04641516911074748674703727 1.851369901740013590440981
3.15316231718463990674195 -0.01582163925744110855031721 1.85273980348002709206412
3.15221492914923873129851 0.01477189059586528005474371 1.851369901740013590440981
3.152739803480026914428436 -0.01596692274595693655792061 1.853089675440381833837478
3.151369901740013634849902 0.01462660710734945031241683 1.852069645660723296032302
3.151369901740013634849902 -0.04656045259926331475464067 1.852069645660723518076907
3.943828364380469242433946 0.01424308773499730410017072 1.870414723354528963028542
3.937656728760937419053789 -0.01666666666666666296592325 1.875949908247967812258139
3.943828364380469242433946 -0.01909024559833602530112273 1.870414723354528963028542
3.928940446169799205478057 -0.0007658985156096462243446865 1.879706344685408980765828
3.926395799198192371193272 0.004323395427603872291644205 1.877927596229411744133131
3.910518752603415748581028 -0.03763885115999601738145941 1.860503969847606242637994
3.927176480469611874468683 -0.0376567287609372025602994 1.865454877200832584094314
3.91845435392313490297056 -0.02173808300893899717043389 1.869220252438744234169121
3.91845435392313490297056 0.02173808300893897982319913 1.869220252438744456213726
3.910518752603415748581028 0.0376388511599960035036716 1.860503969847606242637994
3.927176480469611874468683 0.0376567287609372094991933 1.865454877200832140005105
3.900038504312089759906712 -0.0499525568874400263674751 1.850008938800471014474169
3.900032660356751001984321 -0.01663710115504789602280944 1.850017877600941496041287
3.900038504312089759906712 0.01667835457734425166909098 1.850008938800471014474169
3.907968261676470156373853 0.0007658985156096299613120992 1.858734160192079487572414
3.915909706951528068685775 -0.01664878906572547778708326 1.867441503982746997536424
3.980824557437622424060919 -0.01341291059174461522407462 1.894237468029367654764883
3.974056076674760351608029 0.00839535880032334438927144 1.888474936058734954258398
3.980824557437622424060919 0.0302036281923912970637236 1.894237468029367654764883
3.968293544704128095190754 -0.03847493605873461564037541 1.882530647516397426244339
3.968293544704128095190754 0.03847493605873462257926931 1.882530647516397426244339
3.955762531970633322231379 0.01506129503279472411914064 1.8708238270034274197684
3.961525063941265578648654 -0.006746974359273222483779353 1.876768115545764725737854