# geometry NO_DATA 564
#  x  y  z
4.342986253121119410991469 0.007917518726718255142604797 2.214931265605597499046553
4.335972506242240065432725 -0.0166666666666666664353702 2.221945012484479065051346
4.342986253121119410991469 -0.02541581460661508640175299 2.214931265605597499046553
4.321945012484482262493657 -0.01138832084884919271239312 2.235972506242240420704093
4.314931265605604693291752 -0.03069416042442335568196654 2.242986253121120210352046
4.314931265605604693291752 0.007917518726724965053009875 2.242986253121120210352046
4.328958759363354502625043 -0.03597250624224082593549667 2.214931265605593502243664
4.314931265605595811507555 -0.03597250624224082593549667 2.228958759363354857896411
4.314931265605595811507555 0.03597250624224081899660277 2.228958759363354857896411
4.328958759363354502625043 0.03597250624224082593549667 2.214931265605593502243664
4.39199829721974399632245 0.001989783318464276827552961 2.209991486098719537523039
4.383996594439488525551951 -0.01666666666666666990481716 2.217993188878976340561167
4.39199829721974399632245 -0.03134355001486906211471961 2.209991486098719537523039
4.374343674651698599120664 -0.002639172908912649096607739 2.226982847560611933346308
4.372692457644165031638295 0.0006632611061554704321233111 2.227970803461990279004112
4.375994891659230390246194 -0.03399659443948881143438001 2.209991486098719093433829
4.36567871076528746243639 -0.01996910068173478672304277 2.22095705658310560437485
4.359328224992563782791422 -0.03399659443948880449548611 2.211967397901469567500499
4.366341971871440463814906 0.01996910068173478672304277 2.218981144780354242129761
4.357677007985030215309052 0.03597250624224598847256118 2.212955353802848357247512
4.375994891659230390246194 0.03399659443948881143438001 2.209991486098718649344619
4.357013746878876325752117 0.007917518726723414210222352 2.214931265605600163581812
4.364027493757753894954021 -0.01138832084885590435752167 2.221945012484484394121864
4.357013746878876325752117 -0.03069416042443522119054222 2.214931265605600163581812
4.441860827327634986261273 0.001164963965810326875643943 2.209304136638174487217157
4.433721654655270683065282 -0.0166666666666666664353702 2.217443309310540122680777
4.441860827327634986261273 -0.03216836936752300035724517 2.209304136638174487217157
4.425056690768859546381009 -0.0006632611061568151680778449 2.22571995187501592283752
4.424530899554811824714307 0.0003883213219374862835986395 2.225857421767125643441432
4.425582481982904603512452 -0.03372165465527082739427556 2.209304136638174487217157
4.416529196774556353943808 -0.01771824909476097525962146 2.217855718986868396314094
4.40891581531623799605768 -0.03372165465527082739427556 2.209579076422392152068142
4.416917518096493466828178 0.01771824909476096832072756 2.217580779202649399195479
4.408390024102191162569397 0.03399659443949014370200956 2.209716546314501872672054
4.425582481982904603512452 0.03372165465527082739427556 2.209304136638174043127947
4.408001702780254937863447 0.001989783318465616901438153 2.209991486098719981612248
4.416003405560509520455525 -0.01534014445435786556937163 2.217993188878977228739586
4.408001702780254937863447 -0.03267007222718134457073447 2.209991486098719981612248
4.491840176898738157262869 0.001035616532920415966759209 2.20919543963418174570279
4.483680353797476314525738 -0.01666666666666666296592325 2.217357985165198996924119
4.491840176898738157262869 -0.03229771680041291365137468 2.20919543963418130161358
4.475152859803174898445377 -0.0003883213219376174720615102 2.225541181125113343597377
4.474785188910134436923727 0.0003470204641444952662829304 2.225561831554009550870887
4.475520530696215359967027 -0.03368035379747782998016703 2.209198162063936710097778
4.466646016237769245549316 -0.0174020084527487794989753 2.217422658881643915407267
4.458853864029547864333836 -0.03368035379747782998016703 2.209242185351485421307416
4.466993036701913055708246 0.01740200845274877602952834 2.217381358023851056771036
4.458486193136507402812185 0.03372165465527094535547192 2.209262835780381628580926
4.475520530696215359967027 0.03368035379747782998016703 2.209198162063937154186988
4.458139172672364480831675 0.001164963965810452643095951 2.209304136638174487217157
4.466278345344728784027666 -0.01589002402279382844541011 2.217443309310540122680777
4.458139172672364480831675 -0.03294501201139810736551183 2.209304136638174487217157
4.541856453197684828637648 0.001157127197864710058464177 2.209300674000179043332537
4.53371290639536983491098 -0.01666666666666666296592325 2.217435016796617475165476
4.541856453197684828637648 -0.03217620613546861435549928 2.209300674000179043332537
4.525211510415761750891761 -0.0003361252925519723913985737 2.225547635708312377289531
4.524853661238466884242371 0.0003795730620371712640305495 2.225525911823569735759065
4.52557856359893229125646 -0.03371290639537049410590086 2.209300674000179043332537
4.516688390551408360806818 -0.01738236502125580645872205 2.217368813878348721146949
4.508911896932265683801688 -0.03371290639537050104479476 2.209256194966653374933685
4.517077167619323319058822 0.01738236502125580645872205 2.217413292911874833635011
4.508554047754970817152298 0.03366945862588529431169704 2.20923447108191073340322
4.52557856359893229125646 0.03371290639537050104479476 2.209300674000179043332537
4.508165270687056747078714 0.001024721361327892658193983 2.209189992048385065004368
4.516330541374114382335847 -0.0159780705978907443254311 2.217347089993606079616484
4.508165270687056747078714 -0.03298086255710937914065184 2.209189992048385065004368
4.591989425802350588412537 0.001936554814101971869547136 2.209947129011750721616636
4.583978851604699755739603 -0.01666666666666666990481716 2.217957703209401110200361
4.591989425802350588412537 -0.03139677851923135254441632 2.209947129011750721616636
4.575449596892051218333108 -0.0003918427586295436179653073 2.225841439650682040962693
4.574930916377053513599549 0.0006455182713683981117480659 2.2257146018943125831413
4.57596330512950189017829 -0.03397885160470173748770151 2.209942156734202356460628
4.566793504423035443551271 -0.01770402769666460512931749 2.2175741242495785598976
4.559296638462834394545098 -0.0339788516047017236099137 2.20968541553074881989005
4.567434050416853352771795 0.01770402769666459819042359 2.21782589317548328722296
4.558777957947836689811538 0.03372517609196286347827964 2.209558577774379362068657
4.57596330512950189017829 0.0339788516047017236099137 2.209942156734202356460628
4.558137411954017892412594 0.001169396894457076178236443 2.209306808848474634743297
4.566274823908035962460872 -0.01588911253083912650252429 2.217447286493208657986997
4.558137411954017892412594 -0.03294762195613532701488069 2.209306808848474634743297
4.642823052913959358534157 0.006938317483752923404971558 2.214115264569792351778688
4.635646105827919249975366 -0.0166666666666666664353702 2.221292211655836457140367
4.642823052913959358534157 -0.02639501584958040339423668 2.214115264569792351778688
4.62699001335890081065827 -0.0006455182713678960177219879 2.227635531630270282477113
4.625510867975923368078384 0.00231277249458700095985364 2.226801904518660890630599
4.628469158741876476881316 -0.03564610582792034076948795 2.214115264569793239957107
4.617500293778275199940708 -0.01962495743262156547292996 2.218791330321010946136084
4.611802492075209869426544 -0.03564610582792034076948795 2.212448010346577120799338
4.619813066272858925742639 0.01962495743262156200348301 2.220458584544227509383063
4.610323346692231538668238 0.03397885160470122400955262 2.211614383234967284863615
4.628469158741876476881316 0.03564610582792033383059405 2.214115264569793239957107
4.608010574197649589223147 0.001936554814101462077685634 2.209947129011750721616636
4.616021148395297757360822 -0.01537563012393309593017765 2.217957703209401110200361
4.608010574197649589223147 -0.03268781506196764830018964 2.209947129011750721616636
4.685884735430200009886903 -0.006938317483759754746019954 2.242823052913959447351999
4.678707788344160789506532 0.01204112167749267665872726 2.235646105827918894703998
4.685884735430200009886903 0.03102056083874508984887797 2.242823052913959447351999
4.671530841258119792769321 -0.03564610582791907095190354 2.228469158741875677520738
4.671530841258119792769321 0.03564610582791909176858525 2.228469158741875677520738
4.657176947086041352008579 0.006938317483751690883941876 2.214115264569791907689478
4.66435389417208146056737 -0.01204112167750071883676188 2.221292211655835124872738
4.657176947086040463830159 -0.03102056083875315631304126 2.214115264569791907689478
4.292569074407594165165847 0.00541444644556873105889494 2.262845372037973756818019
4.285138148815189396145797 -0.01666666666666666990481716 2.270276297630379414016488
4.292569074407594165165847 -0.02791888688776460528129242 2.262845372037973756818019
4.270276297630378081748859 -0.01305703570295610634055539 2.285138148815189396145797
4.26284537203797153637197 -0.03152851785147892799132663 2.292569074407594609255057
4.262845372037972424550389 0.005414446445566718779662807 2.292569074407595053344266
4.27770722322277840987681 -0.03513814881518949329031187 2.262845372037968871836711
4.262845372037967095479871 -0.03513814881518949329031187 2.277707223222779298055229
4.262845372037967095479871 0.03513814881518949329031187 2.277707223222779298055229
4.27770722322277840987681 0.03513814881518949329031187 2.262845372037968871836711
4.327845029292502587736635 0.0004117127671715198377125344 2.272566683474668725040146
4.326731299221630244744574 -0.002639172908917152005070506 2.274092126312713180169567
4.324509305026240646441238 -0.001804815481862383956881968 2.276314120508102778472903
4.323401040901723391129963 0.0004117127671715202713934034 2.277010671865448365736029
4.318603822271880332550609 -0.01971755234275533730237129 2.265964649362964156154021
4.312703805463870665448667 -0.03597250624225049181470482 2.257425459646044796357955
4.315970115309321286645172 -0.01888319491570056990470405 2.2695797462730400440023
4.308950902484088629762482 -0.03374504610050485520211794 2.260755717965944988634419
4.316381828076490734247272 0.01888319491570057684359796 2.268186643558353754457357
4.307842638359571374451207 0.03513814881519572441703758 2.261452269323291019986755
4.320831282413619689464213 0.01971755234275534424126519 2.265552936595793820373501
4.311590075392997434278186 0.03374504610050485520211794 2.258950902484088807398166
4.321945012484492920634693 -0.0166666666666666664353702 2.264027493757749809333291
4.314931265605609134183851 -0.02541581460659871061213977 2.257013746878874904666645
4.314931265605609134183851 0.007917518726734632666941494 2.257013746878874904666645
4.307430925592401038670687 0.005414446445574963920344125 2.262845372037976865442488
4.314861851184803143155477 -0.01305703570295408885715283 2.270276297630385631265426
4.307430925592401038670687 -0.0315285178514831398999263 2.262845372037976865442488
4.692335143274942055313659 0.004010859649651266241321412 2.26167571637470921075419
4.684670286549884821170053 -0.01666666666666668725205191 2.269340573099768221254635
4.692335143274942055313659 -0.02932247368368206402733378 2.26167571637470876666498
4.676150404043266206599583 -0.0003730983465699211289352821 2.276523502389836473014384
4.675295378261704826172718 0.001336953216551157747754575 2.276041574954846158362898
4.680532651199727389723648 -0.02031639237780675719124979 2.266178757027647705513118
4.690022370780354776798049 -0.03467028654988453528762449 2.260338763158158847943469
4.674325541187695165490368 -0.004022824057709992531806087 2.274698639534266320083589
4.674325541187696053668787 0.00402282405770991793869662 2.274698639534266320083589
4.680532651199727389723648 0.02031639237780670861899246 2.266178757027647705513118
4.690022370780354776798049 0.03467028654988450753204887 2.260338763158158847943469
4.685884735430197345351644 -0.006938317483762894595511472 2.257176947086038332201952
4.678707788344157236792853 0.0120411216774926298211934 2.264353894172077552582323
4.685884735430197345351644 0.03102056083874818459555911 2.257176947086038776291161
4.672500678332125900737992 0.000373098346569846264775272 2.272873776678696167152793
4.673470515406135561420342 -0.002312772494588913492485904 2.274216712099275561342893
4.73832428362528901288897 -0.004010859649652809277853294 2.292335143274942144131501
4.730659426900231778745365 0.01399276023356456344348686 2.284670286549884021809476
4.73832428362528901288897 0.03199638011678196392040263 2.292335143274942144131501
4.72299457017517276824492 -0.03467028654988406344283902 2.277005429824825455398241
4.72299457017517276824492 0.03467028654988403568726341 2.277005429824825455398241
4.707664856725057411779289 0.004010859649650790059727257 2.261675716374708322575771
4.715329713450115534101315 -0.01399276023356660694774156 2.269340573099767333076215
4.707664856725057411779289 -0.03199638011678397619963476 2.261675716374708322575771
4.245036887467752428904078 0.02022132480652829439327078 2.325184437338775556014525
4.240073774935504857808155 -0.0166666666666666664353702 2.3301475498710164657723
4.245036887467752428904078 -0.01311200852680503847746962 2.325184437338775556014525
4.230147549871002610188953 -0.003185783462337309253353812 2.340073774935504946625997
4.225184437338747933665672 -0.02659289173117568641502295 2.34503688746775207363271
4.225184437338747933665672 0.0202213248065010627041449 2.34503688746775207363271
4.235110662403244852214357 -0.04007377493550504099495413 2.325184437338756460178502
4.225184437338743492773574 -0.04007377493550504099495413 2.335110662403245385121409
4.225184437338743492773574 0.04007377493550504099495413 2.335110662403245385121409
4.235110662403244852214357 0.04007377493550504099495413 2.325184437338756460178502
4.277037336092913477614275 0.0004650412221038807735265519 2.323427705129189391186628
4.276367448963034334497024 -0.001804815481862805711527065 2.324562633481172646554569
4.272094820421004968125089 -0.006740441602197055903644696 2.328835262023202012926504
4.268492079008854744870405 0.0004650412221038832671915486 2.331972962213248568019708
4.268266636240751310538144 -0.01893652337063335758249316 2.316461820758889178506479
4.261505597778221243743246 -0.03513814881519614075067182 2.307895966814503818653748
4.263528966476619608272358 -0.0238721494909676090756534 2.327009849680995223764057
4.259030895166486807568162 -0.03379837455543721613793196 2.315771336768665200622763
4.263994007698721055987789 0.0238721494909676090756534 2.320734449300918988967624
4.255428153754336584313478 0.0400737749355303887743851 2.318909036958711755715967
4.269606410500505155880546 0.01893652337063335411304621 2.315996779536787286701838
4.260835710648342100625996 0.03379837455543722307682586 2.309030895166487074021688
4.270276297630383410819377 -0.01666666666666666990481716 2.314861851184804031333897
4.262845372037974200907229 -0.02791888688775997356961156 2.307430925592401926849107
4.262845372037974200907229 0.005414446445573363637937536 2.307430925592401926849107
4.254963112532234248419627 0.02022132480655363523380785 2.325184437338788434601611
4.259926225064469385017674 -0.003185783462310082334717487 2.330147549871041778857261
4.254963112532234248419627 -0.02659289173117380250532804 2.325184437338787990512401
4.742931660774659441415224 0.00758996464795614819709435 2.314658303873296851804753
4.735863321549318882830448 -0.01666666666666668378260496 2.321726643098638298567948
4.742931660774659441415224 -0.0257433686853771812041991 2.314658303873296851804753
4.727340793366139770625978 -0.0003783896996937607471248044 2.327719183065833696844038
4.725886604408300328827863 0.002529988215985981645644864 2.326643383807687648356932
4.732592897616499705293336 -0.0205336080992042820103638 2.317263184166383993556337
4.741594707558108190426083 -0.0358633215493193574507913 2.312128315657311361519533
4.725407322649870955899587 -0.004245331132231357565420815 2.325785712349564882117647
4.725407322649870067721167 0.004245331132231289911205252 2.325785712349564882117647
4.732592897616499705293336 0.02053360809920423690755342 2.317263184166383993556337
4.741594707558108190426083 0.03586332154931932969521569 2.312128315657311361519533
4.738324283625288124710551 -0.004010859649653667098612164 2.307664856725057944686341
4.730659426900230002388525 0.01399276023356456517821034 2.315329713450115178829947
4.738324283625288124710551 0.03199638011678282434324672 2.307664856725057944686341
4.723473851933601252994777 0.0003783896996936930929092413 2.323852241633296067391257
4.723953133692030625923053 -0.001336953216551615281071363 2.324709913091418833630541
4.78534169612670101656704 -0.007589964647957287043056329 2.342931660774659530233066
4.778273356901360457982264 0.01160669023469499197553922 2.33586332154931897164829
4.78534169612670101656704 0.03080334511734725277953828 2.342931660774659530233066
4.771205017676020787575908 -0.03586332154931892030047536 2.328794982323977968974305
4.771205017676020787575908 0.03586332154931894111715707 2.328794982323977968974305
4.757068339225339670406356 0.007589964647955752680141828 2.314658303873295963626333
4.764136678450680228991132 -0.01160669023469650118496332 2.321726643098637410389529
4.757068339225339670406356 -0.03080334511734877239730324 2.314658303873296407715543
4.232305762830042894506732 0.001130642455726506723917568 2.368824879625682111594642
4.229500863256816067803356 -0.006740441602180750370332252 2.3727604216546360760276
4.218927951578116619657521 -0.01440538175521919629640255 2.384463975789059553278548
4.211159939472643110036643 -0.03220269087761237075673293 2.392231987894529510185748
4.211159939472643998215062 0.003391927367173983801779125 2.392231987894529954274958
4.221732851151341670004058 -0.02453775072457392569802437 2.364992409549161678228302
4.219574638192310267470475 -0.04007377493551408237371092 2.35609375498796502768073
4.211159939472642221858223 -0.03446397578905984609987101 2.37669596368358515547925
4.211159939472642221858223 0.03446397578905983916097711 2.37669596368358515547925
4.227342650297784665269774 0.02453775072457391875913046 2.363861767093439425480028
4.216769738619083440767099 0.03446397578905983916097711 2.360029297016918548024478
4.23014754987101149197315 -0.0166666666666666664353702 2.35992622506448590513628
4.225184437338752374557771 -0.01311200852682322705311524 2.354963112532242774932456
4.225184437338752374557771 0.02022132480651010408290169 2.354963112532242774932456
4.789934371985594019349719 -0.002078753617286664082813852 2.39201312560288137376574
4.781947497588474149665672 0.0152808309218089039688282 2.384026251205762392260112
4.789934371985594019349719 0.03264041546090444556593724 2.39201312560288137376574
4.78534169612670101656704 -0.03586332154931960725097184 2.37120501767602043230454
4.779191892073138880903116 -0.01988957275508181771206395 2.379884809945568058253684
4.788097301642036285329596 -0.03402625120576221323664967 2.3894831373868949953021
4.779191892073138880903116 0.01988957275508186281487433 2.379884809945568058253684
4.788097301642036285329596 0.03402625120576223405333138 2.3894831373868949953021
4.78534169612670101656704 0.03586332154931963500654746 2.37120501767602043230454
4.78534169612670101656704 -0.007589964647957971391467602 2.357068339225340203313408
4.778273356901360457982264 0.01160669023469499197553922 2.364136678450679873719764
4.78534169612670101656704 0.03080334511734793626058782 2.357068339225340203313408
4.77212355284779832231834 0.000692917872428919614027909 2.372816470720227499668908
4.773042088019575857060772 -0.002529988215986250094102772 2.374427923764435011122487
4.226398417281483688157095 0.0005355496515117044676809743 2.424137132370027369887566
4.226100870879375470678951 -0.001130642455728580585833098 2.424970228423647178317424
4.217737765969687302458624 -0.01559556736364676315931277 2.433868882984844717043416
4.20967220746210912807328 -0.0327977836818251350381459 2.44193444149242244733955
4.20967220746210912807328 0.001606648954531610887924709 2.44193444149242244733955
4.218035312371795519936768 -0.0183328587739069528983471 2.41690466991606767166445
4.210564846668430227794033 -0.03446397578906192082914828 2.408303561756978350416603
4.20967220746210735171644 -0.03386888298484504178365029 2.425803324477264766301232
4.20967220746210823989486 0.03386888298484504178365029 2.425803324477264766301232
4.218630405176009290357797 0.01833285877390695636779405 2.416369120264557857069576
4.210267300266322010315889 0.03386888298484504178365029 2.40913665781059815884646
4.218927951578118396014361 -0.01666666666666666990481716 2.415536024210938492728928
4.211159939472643998215062 -0.02994140596615728344698226 2.407768012105468979910938
4.211159939472643998215062 0.003391927367176058531056393 2.407768012105468979910938
4.790629112746838558223317 -0.001245064703795250530410366 2.441874177450632732444546
4.782503290197471557121389 0.01583662353080315596254302 2.433748354901265287253409
4.790629112746838558223317 0.03291831176540158804266767 2.441874177450632732444546
4.789934371985594907528139 -0.03402625120576230344227042 2.423960623191356855699041
4.782086445740724833797231 -0.01777460610702739224331381 2.432501467308656017962676
4.790351216442340742673878 -0.03374835490126509851549486 2.44118125957820364391182
4.782086445740724833797231 0.01777460610702734367105649 2.432501467308656017962676
4.790351216442340742673878 0.03374835490126507769881314 2.44118125957820364391182
4.789934371985594907528139 0.03402625120576227568669481 2.423960623191356855699041
4.789934371985594907528139 -0.002078753617286749517945044 2.407986874397119336776996
4.781947497588475926022511 0.01528083092180885713129435 2.415973748794238318282623
4.789934371985594907528139 0.03264041546090448719930066 2.407986874397119336776996
4.774099571343605852291603 0.0004150215679317136572602787 2.424514592911537480546258
4.774238519495854760066322 -0.0006929178724289849914189099 2.425068562631717661304265
4.225740605748217859627403 0.0004101121934116774272668926 2.474669506445192901367136
4.225677887019166689697158 -0.0005355496515125426643805229 2.475142337367654654656235
4.217486891053487063629746 -0.01584644227984664116570812 2.483743445526744864082502
4.209358613816858607492577 -0.03292322113992501159129844 2.491871722763372432041251
4.209358613816858607492577 0.001230336580231754630213037 2.491871722763372432041251
4.21754960978253734538157 -0.01761232851159091547521562 2.467014060131025310340647
4.209546770004008564569631 -0.03386888298484585363423705 2.458475670700986714933833
4.209358613816858607492577 -0.03374344552674506808598309 2.475615168290115519766914
4.209358613816857719314157 0.03374344552674503339151357 2.475615168290115519766914
4.217675047240637908885219 0.01761232851159086343351134 2.466603947937616059249422
4.209484051274957394639387 0.03374344552674504033040748 2.458948501623448912312142
4.217737765969688190637044 -0.01666666666666669419094582 2.466131117015153861871113
4.20967220746210912807328 -0.0317266843788009400562089 2.458065558507576575664189
4.20967220746210912807328 0.001606648954532396500818892 2.458065558507576575664189
4.790765533185848745745261 -0.0010813601769812408205651 2.491846893362830162033106
4.782612426548679351867577 0.01594575988201250849041202 2.483693786725660324066212
4.790765533185848745745261 0.03297287994100626257187869 2.491846893362830162033106
4.790629112746836781866477 -0.03374835490126509851549486 2.474377467648102069119886
4.782530574285272173540307 -0.01744214162692551278732722 2.482891027677599282696974
4.790710965010244848372167 -0.03369378672566042398628383 2.491431871794898444960609
4.782530574285272173540307 0.01744214162692551278732722 2.482891027677599282696974
4.790710965010244848372167 0.03369378672566042398628383 2.491431871794898444960609
4.790629112746836781866477 0.03374835490126509851549486 2.474377467648102513209096
4.790629112746837670044897 -0.001245064703795250530410366 2.458125822549367622826821
4.78250329019746978076455 0.01583662353080318024867168 2.466251645098735068017959
4.790629112746837670044897 0.03291831176540160885934938 2.458125822549367622826821
4.774404751735904284259959 0.0003604533923270814661440897 2.474765205128231393416627
4.774432035823707565214136 -0.000415021567931761362155868 2.475152942608361161802577
4.225611790948876844709048 0.000403357510932624843073141 2.524791566562054612177235
4.225608413607638169651182 -0.0004101121934117222590267249 2.525198301414226520478223
4.217473381688529698863022 -0.01585995164480476227186756 2.533736690844265559974247
4.209341727110661679489567 -0.03292997582240403398046169 2.541868345422132691169281
4.209341727110661679489567 0.001210072532794481681150955 2.541868345422132691169281
4.217476759029769262099308 -0.01748013637101099304604901 2.517066646836357612926349
4.209351859134379481020005 -0.0337434455267450819637709 2.508531634747558136666612
4.209341727110661679489567 -0.03373669084426592079672957 2.525605036266397096511582
4.209341727110661679489567 0.03373669084426593467451738 2.525605036266397096511582
4.217483513712248388571879 0.01748013637101103467941243 2.516663289325427044218486
4.209348481793139917783719 0.03373669084426592773562348 2.5089383695997300449676
4.217486891053487951808165 -0.01666666666666664561868849 2.516256554473255135917498
4.209358613816858607492577 -0.03210299675310150646634355 2.508128277236627567958749
4.209358613816858607492577 0.001230336580231822067588165 2.508128277236627567958749
4.790714357316008253917516 -0.001142771220789248753924028 2.541857128536798349216497
4.782571485852805892591277 0.01590481918614050291238549 2.533714257073596431979468
4.790714357316008253917516 0.032952409593070254578695 2.541857128536798349216497
4.790765533185847857566841 -0.03369378672566042398628383 2.524459319911509513900683
4.782602191374709654780872 -0.01740804379925683584295903 2.532983115114974204118425
4.790734827663944095377246 -0.03371425707359641810167972 2.541496675144470973606303
4.782602191374710542959292 0.01740804379925683931240599 2.532983115114974204118425
4.790734827663944983555666 0.03371425707359641810167972 2.541496675144470973606303
4.790765533185848745745261 0.03369378672566042398628383 2.524459319911509513900683
4.790765533185848745745261 -0.001081360176981243205809879 2.508153106637169837966894
4.782612426548678463689157 0.01594575988201251195985897 2.516306213274339675933788
4.790765533185848745745261 0.03297287994100626257187869 2.508153106637169837966894
4.774449084737540260903188 0.0003809237402630838214764863 2.524830008477804810240741
4.774438849563572340173323 -0.0003604533923270851524314762 2.52520069704409966249159
4.225690624616095902865709 0.000574534210327527772310674 2.574883909594231301554146
4.225776212965794087494942 -0.0004033575109325883596700368 2.575372855454861387158871
4.217815735087318884666274 -0.01551759824601687751122192 2.583907867543660863418609
4.209769668859147273565213 -0.0327587991230110717189028 2.59195393377183069816283
4.209769668859147273565213 0.001723602630977318864863301 2.59195393377183025407362
4.217730146737622476393881 -0.017644558387926785603117 2.567326789226689331968601
4.209512903810055384212774 -0.03373669084426593467451738 2.55870618878819211516884
4.209769668859147273565213 -0.03390786754366086758194498 2.575861801315489252317548
4.209769668859147273565213 0.03390786754366086064305108 2.575861801315488808228338
4.217558970038226995313835 0.017644558387926785603117 2.566752255016363726269901
4.209598492159753568842007 0.03390786754366086064305108 2.559195134648822644862776
4.217473381688529698863022 -0.01666666666666666990481716 2.566263309155734084754386
4.209341727110661679489567 -0.03212326080053887200627116 2.558131654577866953559351
4.209341727110661679489567 0.001210072532794469104405755 2.558131654577866953559351
4.790335852931737470328244 -0.001596976481915118872834114 2.591932829413652328298667
4.782268682345390153898279 0.01560201567872325674468659 2.583865658827305011868702
4.790335852931737470328244 0.03280100783936162889276034 2.591932829413652328298667
4.790714357316009142095936 -0.03371425707359641810167972 2.574428614389605129986194
4.782495784975953512230262 -0.01757991590090145911373654 2.583028110469923976921791
4.790487254685445783763953 -0.03386565882730504378761438 2.591551905673388667139534
4.782495784975953512230262 0.01757991590090145911373654 2.583028110469923976921791
4.790487254685445783763953 0.03386565882730504378761438 2.591551905673388667139534
4.790714357316009142095936 0.03371425707359641810167972 2.574428614389605129986194
4.790714357316009142095936 -0.001142771220789248753924028 2.558142871463201295512135
4.782571485852807668948117 0.01590481918614050638183244 2.566285742926403212749165
4.790714357316009142095936 0.032952409593070254578695 2.558142871463201295512135
4.774352913512751150904023 0.0005323254939717085316291945 2.574885239006722503773972
4.774277212635896106007749 -0.0003809237402630815988620328 2.57534186362383987756175
4.226444600484544622531757 0.001740132548435956725066398 2.625295532063891545959677
4.227027399653599637474599 -0.0005745342103266174761666552 2.626452865443273054779638
4.220146931763531839010284 -0.01318640156980874396375203 2.635073465881769383400979
4.212683664704409025603127 -0.0315932007849113738462421 2.642536732940884647291568
4.212683664704409025603127 0.00522039764529388244929109 2.642536732940884647291568
4.219564132594479488602701 -0.01898133342542924692497586 2.61898959838415246181853
4.210935267197252862558798 -0.03390786754365995858684357 2.609786198776601118254348
4.212683664704411690138386 -0.0350734658817693015220307 2.627610198822649678618291
4.212683664704410801959966 0.0350734658817692945831368 2.627610198822649678618291
4.218398534256373011430696 0.0189813334254292434555289 2.617249465835721711215456
4.21151806636630787750164 0.0350734658817692945831368 2.610943532155982627074309
4.217815735087318884666274 -0.01666666666666666990481716 2.616092132456340202395495