# geometry NO_DATA 388
#  x  y  z
4.38382423468719384374026 0.01541807901415893217178521 2.332218138153217878993928
4.391912117343597543595024 0.03257564703468704414568435 2.340172628337227944683718
4.391912117343597543595024 -0.001739489006369182621039582 2.340172628337227944683718
4.389431155439285525687865 -0.002604044418226776798352962 2.342035199857511962306944
4.381662777933373220662361 0.01479968863013137597706148 2.334070399715024279885256
4.389431155439285525687865 0.03220342167848952441566723 2.342035199857511962306944
4.383215412036620683977617 -0.01736195297942801779589317 2.332724510682759877511216
4.391650937849403746326971 -0.0338242346871947818787163 2.340535742669289209771932
4.382601428168844570620877 -0.01760811800725805773004673 2.333338494550536434957166
4.390103464963360124784231 -0.03407039971502481834342291 2.34177402036331994139573
4.382601428168844570620877 0.01760811800725805426059978 2.333338494550535990867957
4.390103464963360124784231 0.03407039971502481834342291 2.34177402036331994139573
4.383215412036620683977617 0.01736195297942801779589317 2.332724510682759877511216
4.391650937849403746326971 0.0338242346871947818787163 2.340535742669289653861142
4.375388708874410781390907 -0.0002043849588999058219940252 2.324406906166688102644002
4.375041065718029642539477 0.0004909013538614412017202504 2.324550164364168836073077
4.374427081850253529182737 0.0007370663816914795095705526 2.325164148231945393519027
4.374160741138857666499007 -0.0002043849588999058219940252 2.325634873902241217535902
4.435687309973165071141921 0.01195871338700386574127599 2.328625380053670923530262
4.442843654986582180299592 0.03097935669350188395143597 2.335781725067088032687934
4.442843654986582180299592 -0.007061929919494153336245734 2.335781725067088032687934
4.433507916009358673647966 -0.01968891373575751627122976 2.331153939369528416136745
4.442175384557323525314132 -0.03568730997316468811497714 2.337467431277659546395853
4.423997594356110063529286 -0.03400160376259282746236323 2.340039967196523296166788
4.423997594356110951707706 0.03400160376259282746236323 2.340039967196523296166788
4.433507916009359561826386 0.01968891373575751627122976 2.331153939369528416136745
4.442175384557322637135712 0.03568730997316468811497714 2.337467431277659990485063
4.427019841425201107654175 -0.0006682704292594986031708637 2.322311888145539349181945
4.42550871789065602968094 0.002353976639831355244236732 2.323154741250825328080509
4.41599839623740741956226 0.01541807901415893217178521 2.332040769077820208110552
4.407999198118703887416814 0.03275301611008510360711909 2.34008394379952910924203
4.407999198118702999238394 -0.001916858081767235360420853 2.34008394379952910924203
4.491750402250076490417996 -0.0001674711668200069283277825 2.316499195499846841528324
4.495875201125038245208998 0.02491626441658990193106504 2.320623994374808596319326
4.495875201125038245208998 -0.02525120675022991811875528 2.320623994374808596319326
4.484010902831958134129309 -0.02743771222324122363578347 2.325593833915214680985173
4.493521224485206744247989 -0.04175040225007657646028036 2.326687086651720193231085
4.471469035040252393287119 -0.03568730997316464648161372 2.335781725067088032687934
4.471469035040252393287119 0.03568730997316464648161372 2.335781725067088032687934
4.484010902831958134129309 0.02743771222324122363578347 2.325593833915214680985173
4.493521224485206744247989 0.04175040225007657646028036 2.326687086651720193231085
4.482240080596827880299315 -0.002353976639831312309830702 2.315405942763340885193202
4.476854557818541024971637 0.008417068916743243589539958 2.318437488901796683649081
4.464312690026835284129447 0.01195871338700386400655251 2.328625380053670035351843
4.457156345013417286793356 0.03097935669350184231807255 2.335781725067088032687934
4.457156345013417286793356 -0.007061929919494109100797097 2.335781725067087588598724
4.535563303268540735757597 0.01220672679625070707054579 2.328873393462917107399335
4.542781651634269834971747 0.03110336339812534711679604 2.336091741828646650702694
4.542781651634269834971747 -0.006689909805623923434725331 2.336091741828646206613485
4.521822714925822772613628 -0.02731370551861788190106672 2.319592744990614185951472
4.534364582717527625277398 -0.03556330326854130474689697 2.329904642847111517767189
4.512374396624885264373006 -0.04175040225007657646028036 2.320623994374808596319326
4.512374396624885264373006 0.04175040225007657646028036 2.320623994374808596319326
4.521822714925822772613628 0.02731370551861787149272587 2.319592744990614185951472
4.534364582717527625277398 0.03556330326854129086910916 2.329904642847111517767189
4.523021435476836771272247 -0.008417068916743253997880814 2.318561495606420219672827
4.517697916050861017822626 0.002229969935207962335177445 2.31546794611565243116047
4.508249597749923509582004 -0.0001674711668200092322573991 2.316499195499846841528324
4.504124798874961754791002 0.02491626441658990193106504 2.320623994374808596319326
4.504124798874961754791002 -0.02525120675022992158820223 2.320623994374808596319326
4.584022537184891277206589 0.01529029297718890317847595 2.331955942637036649500715
4.59201126859244546096761 0.03264616349541322321003989 2.339945691051410037175629
4.59201126859244546096761 -0.002065577541035418587811456 2.339945691051410037175629
4.580335954055248848248993 -0.0195858404534322919077205 2.329646750203691052405475
4.589784272356186356489616 -0.03402253718489098299748719 2.33840688165988952462726
4.571658018796136424555243 -0.03556330326854130474689697 2.336094715527595511161962
4.571658018796136424555243 0.03556330326854129780800307 2.336094715527595511161962
4.580335954055249736427413 0.01958584045343228843827355 2.329646750203691052405475
4.589784272356186356489616 0.03402253718489098993638109 2.33840688165988952462726
4.574574218883954657144386 -0.002229969935207973610880039 2.323195811180838177278929
4.573114631990571332664786 0.0006892038515576442720550476 2.322425428139013092732057
4.564436696731458908971035 0.01220672679625070880526927 2.328873393462917107399335
4.557218348365729809756886 0.03110336339812535058624299 2.336091741828646650702694
4.557218348365729809756886 -0.006689909805623922567363593 2.336091741828646206613485
4.625960028169078697146688 0.001321242322418739742820315 2.325361214153341737898018
4.626470945826353542429388 -0.0002994070078681616495219764 2.32617153881848492957829
4.61931480127326743456706 -0.01401288209830391442989317 2.334654575655752406504462
4.611647739062906481422033 -0.03200079108738931865651978 2.342327287827876247661152
4.611647739062906481422033 0.003975026890781491531456915 2.342327287827876247661152
4.625467757141486835337219 -0.002305784377599709271400297 2.32516835013361955475375
4.616984720304220246589466 -0.01867304403639821405724852 2.332963200126147551571876
4.610320846778724224179768 -0.03465457565575207066199681 2.341639100983137211642315
4.616984720304220246589466 0.01867304403639821752669548 2.332963200126147551571876
4.610320846778724224179768 0.03465457565575207760089071 2.341639100983137211642315
4.625467757141486835337219 0.00230578437759971230716638 2.32516835013361911066454
4.624956839484211101876099 -0.0006851350473128074453771363 2.324358025468475918984268
4.624464568456621016423469 0.0002994070078681649021284938 2.324165161448753291750791
4.615981531619354427675717 0.01529029297718890317847595 2.331960011441281732658126
4.607990765809677924380594 0.03264209469116838291391502 2.339947725453532356709729
4.607990765809677036202174 -0.002061508736790573954877903 2.339947725453532356709729
4.349577848631781762378523 0.04887796836658523519369979 2.399300119734803615756391
4.349155697263563880028414 -0.01666666666666653112693908 2.399016832815074717899506
4.349577848631781762378523 0.01554463503325190405768286 2.399300119734803615756391
4.349093337402276659986455 0.01654194694409062346696082 2.39915569726356370239273
4.349453128909205545937766 -0.0159470836528065977588664 2.399577848631782028832049
4.349453128909205545937766 0.04903097754098770938435692 2.399577848631782472921259
4.34954310923908682440242 -0.0491556972635637523527663 2.399404244790596774095093
4.349480749377798716182042 -0.0491556972635637523527663 2.399543109239086202677527
4.349480749377797828003622 0.04915569726356389113064438 2.399543109239086646766737
4.34954310923908682440242 0.04915569726356389113064438 2.399404244790597218184303
4.389236340874917985388493 -0.03433122451565401994644233 2.37350316322651888611972
4.37350316322651888611972 -0.03433122451565401300754843 2.390030965444696064992058
4.373503163226517997941301 0.03433122451565401300754843 2.390030965444696064992058
4.389236340874917985388493 0.03433122451565401300754843 2.37350316322651888611972
4.389300743038971219789346 -0.002864869218855976232968041 2.357834387742173021251801
4.381401953132744608865323 0.01479968863013137250761453 2.365668775484345953685761
4.389300743038971219789346 0.03246424647911872601868666 2.357834387742173021251801
4.365668775484345509596551 0.01638893776968801049842561 2.382196577702523132558099
4.357834387742173021251801 0.03405349561867535707060384 2.390889992178527823085687
4.357834387742173021251801 -0.001275620079299335640071744 2.390889992178527378996478
4.634662108013667847217221 0.01402747153614651055841822 2.380684961087738749085929
4.642331054006833213065875 0.03202291288314723649577331 2.388363084195979091362005
4.642331054006833213065875 -0.003967969810854223185192513 2.388363084195979091362005
4.626991279624348862853367 -0.03466210801366739757689572 2.373016015094572939148065
4.626991279624348862853367 0.03466210801366740451578963 2.373016015094572939148065
4.619322333631182608826293 -0.01666666666666666296592325 2.365337891986332596871989
4.611651505241863624462439 -0.02935077408463651615910806 2.357668945993165898755706
4.611651505241863624462439 0.003982559248696821048441041 2.357668945993165898755706
4.675600885008933005337894 0.0006236019812885819618014649 2.375022716972355230069525
4.67576814399043261261113 -0.0002890840182891652116251024 2.375479059972144035839392
4.667927782882417275800435 -0.01539163819774121144678958 2.383956935314622160859699
4.659920162792902331716505 -0.03268190684569644011148171 2.391978467657311036020928
4.659920162792902331716505 0.00189863045021399401597606 2.391978467657311036020928
4.674810342894652137601952 -0.002204686209851825992589447 2.374521258876363116741004
4.666332467552173568492435 -0.01858226885822930607439218 2.381679536653580786520479
4.659282648558439987596103 -0.03395693531462186387503976 2.390658870092051024869306
4.666332467552173568492435 0.01858226885822935117720256 2.381679536653580786520479
4.659282648558439987596103 0.03395693531462189163061538 2.390658870092051024869306
4.674810342894652137601952 0.002204686209851892345762403 2.374521258876362672651794
4.674643083913151642150297 -0.001292000210274078927583097 2.374064915876573866881927
4.673852541798869886235934 0.0002890840182892314563778413 2.373563457780581309464196
4.665374666456392205304837 0.01402747153614653137509993 2.380721735557799423332881
4.657687333228196280288103 0.03198613841308729777157538 2.388381471431009650530086
4.657687333228196280288103 -0.003931195340794255838057225 2.388381471431009650530086
4.339459666854393660173628 -0.002648399774727023918419189 2.442108066629121054802454
4.331567733483514537340398 0.01490106681684861406056442 2.434216133258241931969224
4.339459666854393660173628 0.03245053340842427025414452 2.442108066629121054802454
4.340912307293099736682507 -0.03379466634151884196768378 2.424308000487721770355165
4.332199933858600360281343 -0.01801079959976117222941738 2.433082733783509699065917
4.339881133771116950015312 -0.03421613325824232609839726 2.441646733620935538766616
4.332199933858600360281343 0.01801079959976112365716006 2.433082733783509254976707
4.339881133771116950015312 0.03421613325824230528171555 2.441646733620935094677407
4.340912307293099736682507 0.03379466634151882115100207 2.424308000487721770355165
4.341311280439997588587175 -0.0005860527307616861811614961 2.40810266682924067893623
4.332809640463858968928434 0.01654194694409046734184798 2.416205333658481002601093
4.341311280439997588587175 0.03366994661894263940471461 2.40810266682924067893623
4.324097267029358704348851 0.0008827999249089438964580023 2.424980066954268931311844
4.323886533570997059428009 -0.0004613330081855349551651913 2.425652133420816092268524
4.676488905456794853421343 0.001693518330075112834909312 2.425204612873279597096143
4.677014591475953331212168 -0.0006421462917580984895021823 2.426372445184195925094173
4.670053703326816574303848 -0.01327963000651560115938921 2.435026851663408375969766
4.662567129158521339604704 -0.03163981500325735440881658 2.44251342583170405475812
4.662567129158521339604704 0.00508055499022612606918603 2.44251342583170405475812
4.669516597375572786177145 -0.0190023312884998532568126 2.41887445108381493596994
4.660974019111664645720339 -0.03397547962509145369480734 2.409694358585444007303522
4.662555709226435141090406 -0.03502685166340839539866892 2.427528857563027386845533
4.662555709226436029268825 0.03502685166340841621535063 2.427528857563027386845533
4.668472013212045190755362 0.01900233128849990182906993 2.417192352685825440516965
4.661499705130823123511163 0.03502685166340841621535063 2.410862190896360779390761
4.667946327192886712964537 -0.01666666666666664214924154 2.416024520374908668429725
4.659929434948137050298556 -0.03141615857264974664975199 2.408012260187454511850547
4.659929434948137050298556 0.001917174760683581450498858 2.408012260187454511850547
4.33721543932588105008108 -0.005341472808942951573663027 2.492556912134824109728015
4.329772351460704271630675 0.01310568479403804477423368 2.485113824269647331277611
4.33721543932588105008108 0.03155284239701901943808693 2.492556912134823665638805
4.339459666854394548352047 -0.03421613325824229834282164 2.473675800112636213867745
4.331118887977813081135992 -0.01932995752788994187065796 2.482899378914126931050532
4.338113130337285738846731 -0.03511382426964763936449998 2.491674112209914859761284
4.331118887977812192957572 0.01932995752788998697346834 2.482899378914126931050532
4.338113130337285738846731 0.03511382426964766018118169 2.491674112209914859761284
4.339459666854394548352047 0.03421613325824232609839726 2.473675800112636213867745
4.339459666854394548352047 -0.002648399774727002234375739 2.457891933370878412290494
4.331567733483515425518817 0.01490106681684865742865131 2.465783866741757535123725
4.339459666854393660173628 0.03245053340842429800972013 2.457891933370878412290494
4.323226954606933958302761 0.001780490936314352680772122 2.475007445543247364128092
4.322778109101230725741516 -0.000882799924908948124846475 2.476339090973859402566859
4.678908689226337180855353 0.00443034179252404201887483 2.475521652566186503463541
4.680277100957560776350874 -0.001693518330075808892704048 2.478583582627486237015546
4.675527350251714508999612 -0.007805983081617395846762975 2.487763675125857165681964
4.669409187814643757974409 -0.02890299154080811644407234 2.493881837562928360796377
4.669409187814643757974409 0.01329102537757334209778115 2.493881837562928360796377
4.674158938520490025325671 -0.02279052678926652558688559 2.472465420190414153722713
4.665303952620969418774166 -0.03502685166340911704363492 2.461916915960818741382354
4.669409187814641981617569 -0.03776367512585739744102042 2.481645512688785082389131
4.669409187814642869795989 0.03776367512585738356323262 2.481645512688785082389131
4.671422115058041057977789 0.02279052678926649783130998 2.468035078397890380585977
4.666672364352194790626527 0.03776367512585738356323262 2.464978846022118919023569
4.670053703326817462482268 -0.01666666666666667684371106 2.464973148336590647033972
4.662567129158522227783124 -0.02825277834310651117744051 2.457486574168295412334828
4.662567129158522227783124 0.005080554990226815621767731 2.457486574168295412334828
4.33686644950405941756344 -0.005760260595128463556591214 2.542626710099187725688807
4.329493159603247320887931 0.01282649293658107841897831 2.535253420198375629013299
4.33686644950405941756344 0.03141324646829061345565393 2.542626710099187725688807
4.33721543932588016190266 -0.0351138242696476809978634 2.522329263595528558994374
4.329702553496339589855779 -0.02036724446802389357213947 2.531622640361382625684428
4.337006045432787892934812 -0.03525342019837619800259887 2.540846219162873342867215
4.329702553496339589855779 0.02036724446802390051103337 2.531622640361382625684428
4.337006045432787004756392 0.03525342019837621188038668 2.540846219162873786956425
4.33721543932588105008108 0.03511382426964768793675731 2.522329263595528114905164
4.33721543932588105008108 -0.005341472808942996676473403 2.507443087865175890271985
4.329772351460704271630675 0.01310568479403802569227544 2.51488617573035222463318
4.33721543932588105008108 0.03155284239701904025476864 2.507443087865175890271985
4.322259465631162811405375 0.001920086865042877708603664 2.524179552496206291323233
4.322189667666799017808898 -0.00178049093631435116288908 2.526029841396884911830512
4.680764377245038687647138 0.002668070905029182489365258 2.521903693659989897923879
4.679883241801291227091042 -0.004430341792524568507449789 2.525452900008766654593728
4.672002808476724666775226 -0.01133052485660810196343995 2.536001404238362511023297
4.665003510595906455193926 -0.03066526242830395349026062 2.543000702119181610783016
4.665003510595906455193926 0.008004212715087746093933774 2.543000702119181610783016
4.672883943920473015509742 -0.02376507936422041569746177 2.518453602127947998923219
4.667646916927148836862216 -0.03776367512585790398027541 2.508786233342100047138956
4.665003510595906455193926 -0.03600140423836251102329697 2.529002106357543855352787
4.665003510595905567015507 0.03600140423836251796219088 2.529002106357543855352787
4.674646214807967936621935 0.02376507936422041569746177 2.515785531222919146898676
4.6667657814834004881277 0.03600140423836251102329697 2.512335439690876803808806
4.675527350251715397178032 -0.01666666666666666296592325 2.512236324874141946139616
4.669409187814643757974409 -0.02004230795575947382536341 2.506118162437070751025203
4.669409187814643757974409 0.01329102537757385557593004 2.506118162437070751025203
4.339681688359075195648984 -0.002381973969111206117232893 2.592063662328185191796592
4.331745350687259410449315 0.01507868402059254347991057 2.584127324656370294775343
4.339681688359075195648984 0.03253934201029629047496883 2.592063662328185191796592
4.33686644950405941756344 -0.03525342019837609391919031 2.572119869702435668301632
4.330056207374250121233672 -0.01938074485474650804350816 2.580850198697287822824364
4.338555592817069594957502 -0.03412732465637041689987541 2.590143575463142333603628
4.330056207374250121233672 0.01938074485474650804350816 2.580850198697287822824364
4.338555592817069594957502 0.03412732465637041689987541 2.590143575463142333603628
4.33686644950405941756344 0.03525342019837610085808421 2.572119869702435668301632
4.33686644950405941756344 -0.005760260595128349932203538 2.557373289900811919039825
4.329493159603247320887931 0.01282649293658107841897831 2.564746579801623571626124
4.33686644950405941756344 0.03141324646829050243335146 2.557373289900811919039825
4.322682917473438024558163 0.0007939913230370850049169573 2.573476908796475726148856
4.323245965244440824903904 -0.001920086865042759313726428 2.574833947890515783996079
4.678113922215840325691261 0.0008917026216245578940783334 2.572777780405783865091962
4.677225738074138661204415 -0.002668070905028734497027587 2.57455766716911016445124
4.668450071909916232471005 -0.01488326142341751465170141 2.584225035954958116235503
4.660562589887394580046021 -0.03244163071170874657056515 2.592112517977478880482067
4.660562589887394580046021 0.002675107864873712496672775 2.592112517977478880482067
4.66933825605161789695785 -0.02022644019331996251276351 2.566670185146589400204675
4.663227142312501349863396 -0.03600140423836207387298103 2.557891000502444001085678
4.66056258988739546822444 -0.03422503595495789141534004 2.576337553932436907899728
4.660562589887394580046021 0.03422503595495789141534004 2.576337553932436907899728
4.671114624335023002288381 0.02022644019331996251276351 2.565778482524964321243033
4.662338958170799685376551 0.03422503595495789141534004 2.559670887265770300444956
4.672002808476724666775226 -0.01666666666666666990481716 2.563998595761638021883755
4.665003510595906455193926 -0.02532912061824603780491039 2.556999297880818922124035
4.665003510595906455193926 0.008004212715087298535276972 2.556999297880818922124035
4.342414733007463389924396 0.004488398044782217211068343 2.612073665037318637160979
4.334829466014926246941741 -0.01666666666666666990481716 2.619658932029854447876005
4.342414733007463389924396 -0.02884493528855112259856597 2.612073665037318637160979
4.326334515007667746999687 -0.0003232353478502702397515134 2.626657750355518849971759
4.325424830992945501861868 0.001496132681594071825448289 2.626071301688646997263277
4.332890412689573977900181 -0.01895679067129780320799526 2.617017737345944894400418
4.341620741684426576512124 -0.03482946601492740990035912 2.610577532355724095225469
4.3251894530053522913704 -0.002613359352481405169232875 2.625512688353202950253262
4.3251894530053522913704 0.002613359352481406470275482 2.625512688353202950253262
4.332890412689573977900181 0.01895679067129780320799526 2.617017737345944450311208
4.341620741684426576512124 0.03482946601492740990035912 2.610577532355724095225469
4.339681688359075195648984 -0.002381973969111189637359871 2.607936337671814541749882
4.331745350687258522270895 0.01507868402059254347991057 2.615872675343629438771131
4.339681688359074307470564 0.03253934201029627659718102 2.607936337671814541749882
4.324044391003036835741113 0.0003232353478502711071132514 2.624367626350887050534766
4.324279768990630046232582 -0.0007939913230370633208735076 2.62492623968633109754478
4.387926334962681806928231 -0.004488398044782214608983129 2.642414733007463656377922
4.380341067970144663945575 0.01367440130347852625392058 2.634829466014926957484477
4.387926334962681806928231 0.03183720065173926278001559 2.642414733007463656377922
4.37275580097760840914134 -0.03482946601492740990035912 2.627244199022391146769451
4.37275580097760840914134 0.03482946601492740296146522 2.627244199022391146769451
4.357585266992536787711288 0.004488398044782215476344867 2.612073665037318637160979
4.365170533985072154337104 -0.01367440130347852278447363 2.619658932029854447876005
4.357585266992536787711288 -0.03183720065173926278001559 2.612073665037318637160979
4.642812654031885699623672 0.006875924191315265984747462 2.614063270159429297478937
4.635625308063771043975976 -0.01666666666666667337426411 2.621250616127543064948213
4.642812654031885699623672 -0.02645740914201806862071642 2.614063270159429297478937
4.621250616127543509037423 -0.0120827172057899716317575 2.635625308063771043975976
4.614063270159428853389727 -0.03104135860289503404119138 2.642812654031885699623672
4.614063270159428853389727 0.006875924191315092512399865 2.642812654031885255534462
4.628437962095658164685119 -0.03562530806377173231425104 2.614063270159429297478937
4.614063270159428853389727 -0.03562530806377173231425104 2.628437962095657720595909
4.614063270159428853389727 0.03562530806377173231425104 2.628437962095658164685119
4.628437962095657276506699 0.03562530806377172537535714 2.614063270159429741568147
4.676074636695133790453838 0.0003658681470193335437748883 2.624291231451885586523076
4.675811719457831472368525 -0.0008917026216242403312620124 2.624920016836207459220986
4.674219880781800284808014 -0.002291974730437651777692487 2.626511855512238646781498
4.672890959343071415332815 0.0003658681470193306706391312 2.627474908803947517554889
4.667661320198007501858228 -0.0179242374353102452977371 2.61676961757638348871069
4.660036755412789943875396 -0.03422503595495757916511437 2.608253350169540851766214
4.665703613374956759685119 -0.0193245095441236525157791 2.620287562835833750085612
4.658882135553862546828441 -0.03369920148035267237762724 2.611174110284300908801924
4.666069481521976314297717 0.0193245095441236525157791 2.618361456252414676271201
4.657553214115132789174822 0.03562530806377098291370942 2.612137163576010223664525
4.668187154672613026207273 0.01792423743531024182829015 2.616403749429364378187302
4.659773838175486737611664 0.03369920148035267237762724 2.608882135553862724464125
4.668450071909915344292585 -0.01666666666666666990481716 2.615774964045042949578601
4.660562589887394580046021 -0.03065822546845994867048546 2.607887482022521297153617
4.660562589887394580046021 0.002675107864873393307553195 2.607887482022521297153617
4.657187345968114122740644 0.006875924191314520053652792 2.614063270159429297478937
4.66437469193622877838834 -0.0120827172057897981594099 2.621250616127542620859003
4.657187345968114122740644 -0.03104135860289411463774911 2.614063270159429297478937
4.392010781695960375259347 0.002064690175761147057642564 2.660053908479800721664787
4.384021563391920395247325 -0.01666666666666662480200678 2.668043126783840257587599
4.392010781695960375259347 -0.03126864315757219014990653 2.660053908479800721664787
4.375533281036532606833589 -0.000309898044107444388135103 2.675843179080639622213766
4.375034216985184798431874 0.0006882300585871198176160513 2.675654013073400339095542
4.38143324934023503658409 -0.01885102940684774130986057 2.666262715355162349339935
4.390514649014365389234626 -0.03402156339192036194063462 2.659365678421213630144848
4.374441099666441346016654 -0.002494260784288562793342692 2.674750997710549249575251
4.374441099666442234195074 0.002494260784288704173305984 2.674750997710549249575251
4.38143324934023592476251 0.01885102940684783151548132 2.666262715355162349339935
4.390514649014366277413046 0.03402156339192040357399804 2.659365678421213630144848
4.387926334962681806928231 -0.004488398044782192057577941 2.657585266992535721897184
4.380341067970144663945575 0.01367440130347857309145443 2.66517053398507197670142
4.387926334962681806928231 0.03183720065173928359669731 2.657585266992535721897184
4.373348918296351861556559 0.000309898044107585930728721 2.673658816340458876936736
4.373942035615094425793359 -0.001496132681593998533381429 2.674561831703309966457027
4.442778659528464402228565 0.006671957170786018201380507 2.663893297642321300600088
4.435557319056928626821446 -0.01666666666666661786311288 2.671114638113856187828787
4.442778659528464402228565 -0.02666137616254731293463642 2.663893297642321300600088
4.426879870694301999378695 -0.000688230058586970956657769 2.677568100752888202720214
4.425423762803211147343063 0.002223985723595185877432545 2.676800222920384442204522
4.428335978585391963235907 -0.03555731905692842420574351 2.663893297642321300600088
4.417434544499171167331042 -0.01957888244884878337082057 2.668811004616344462192501
4.411669311918726243959554 -0.03555731905692843114463741 2.662357541977312891390284
4.419658530222765335793156 0.01957888244884886663754742 2.670346760281351983223885
4.410213204027634503745503 0.03402156339192038969621024 2.661589664144808686785382
4.428335978585392851414326 0.03555731905692846583910693 2.663893297642320856510878
4.407989218304039447104969 0.00206469017576114011874866 2.660053908479800277575578
4.41597843660808031529541 -0.01529020654949254237608969 2.668043126783840257587599
4.407989218304040335283389 -0.03264510327474627604527058 2.660053908479800721664787
4.498395761517800295337111 0.04037456910680860266982251 2.691978807589006095213335
4.496791523035602367031061 -0.01666666666666678786601352 2.693583046071204911697805
4.498395761517800295337111 0.007041235773475267196996885 2.691978807589006095213335
4.487346196840471534983408 -0.002223985723596372428290113 2.689570182564067213348835
4.479505109127539519420225 0.01345818970226984184757058 2.683953080574730698515395
4.495187284553402662368171 -0.04679152303560329961840125 2.691978807589006095213335
4.472283768656003744013105 -0.03234884209253287290497525 2.676731740103194923108276
4.478520617886736943091819 -0.04679152303560328574061344 2.680744603610332177368036
4.485741958358271830320518 0.03234884209253275494377888 2.687965944081867952775156
4.470679530173804039350216 0.03555731905692958300102546 2.675127501620995218445387
4.495187284553402662368171 0.04679152303560316777941708 2.691978807589005207034916
4.457221340471535953042803 0.006671957170787131026490346 2.663893297642322188778508
4.464442680943070840271503 -0.01221869521947578120235622 2.671114638113858408274837
4.457221340471535064864383 -0.03110934760973870297218191 2.663893297642322188778508
4.543506555674452940252195 0.01103933404671845509847916 2.667532778372264878896658
4.537013111348906058140074 -0.01666666666666664561868849 2.674026222697812649187199
4.543506555674452940252195 -0.02229399928661487256809082 2.667532778372264878896658
4.521950683164437378991352 -0.01345818970227063288147562 2.685408872866708485105391
4.513381699305515581954751 0.003679778015573292523909821 2.690298078710057438911463
4.530519667023357399671113 -0.03701311134890672427388836 2.667532778372264878896658
4.511777460823317653648701 -0.03380463438451071500612244 2.688693840227858178337783
4.513853000356691680394761 -0.03701311134890672427388836 2.677311190058961898330381
4.515457238838889608700811 0.03380463438451060398381998 2.678915428541160714814851
4.50528401649776988335816 0.04679152303560386860770137 2.682200395902309963958032
4.530519667023358287849533 0.03701311134890674509057007 2.667532778372264434807448
4.50160423848219704012763 0.04037456910680928962031899 2.691978807589006539302545
4.5032084769643958566121 0.01024971273787197642568536 2.693583046071206243965435
4.50160423848219792830605 -0.01987514363106522227719886 2.691978807589006539302545
4.59212627104999171478994 0.00275762629995822839551467 2.66063135524996496883432
4.584252542099985561208086 -0.01666666666666666990481716 2.668505084199972010594593