/*--------------------------------*- C++ -*----------------------------------*\
| =========                 |                                                 |
| \\      /  F ield         | OpenFOAM: The Open Source CFD Toolbox           |
|  \\    /   O peration     | Version:  v2012                                 |
|   \\  /    A nd           | Website:  www.openfoam.com                      |
|    \\/     M anipulation  |                                                 |
\*---------------------------------------------------------------------------*/
FoamFile
{
    version     2.0;
    format      ascii;
    class       volScalarField;
    location    "1.6";
    object      alpha.water;
}
// * * * * * * * * * * * * * * * * * * * * * * * * * * * * * * * * * * * * * //

dimensions      [0 0 0 0 0 0 0];


internalField   nonuniform List<scalar> 
96000
(
0
0
0
0
0
0
0
0
0
0
0
0
0
0
0
0
0
0
0
0
0
0
0
0
0
0
0
0
0
0
0
0
0
0
0
0
0
0
0
0
0
0
0
0
0
0
0
0
0
0
0
0
0
0
0
0
0
0
0
0
0
0
0
0
0
0
0
0
0
0
0
0
0
0
0
0
0
0
0
0
0
0
0
0
0
0
0
0
0
0
0
0
0
0
0
0
0
0
0
0
0
0
0
0
0
0
0
0
0
0
0
0
0
0
0
0
0
0
0
0
0
0
0
0
0
0
0
0
0
0
0
0
0
0
0
0
0
0
0
0
0
0
0
0
0
0
0
0
0
0
0
0
0
0
0
0
0
0
0
0
0
0
0
0
0
0
0
0
0
0
0
0
0
0
0
0
0
0
0
0
0
0
0
0
0
0
0
0
0
0
0
0
0
0
0
0
0
0
0
0
0
0
0
0
0
0
0
0
0
0
0
0
0
0
0
0
0
0
0
0
0
0
0
0
0
0
0
0
0
0
0
0
0
0
0
0
0
0
0
0
0
0
0
0
0
0
0
0
0
0
0
0
0
0
0
0
0
0
0
0
0
0
0
0
0
0
0
0
0
0
0
0
0
0
0
0
0
0
0
0
0
0
0
0
0
0
0
0
0
0
0
0
0
0
0
0
0
0
0
0
0
0
0
0
0
0
0
0
0
0
0
0
0
0
0
0
0
0
0
0
0
0
0
0
0
0
0
0
0
0
0
0
0
0
0
0
0
0
0
0
0
0
0
0
0
0
0
0
0
0
0
0
0
0
0
0
0
0
0
0
0
0
0
0
0
0
0
0
0
0
0
0
0
0
0
0
0
0
0
0
0
0
0
0
0
0
0
0
0
0
0
0
0
0
0
0
0
0
0
0
0
0
0
0
0
0
0
0
0
0
0
0
0
0
0
0
0
0
0
0
0
0
0
0
0
0
0
0
0
0
0
0
0
0
0
0
0
0
0
0
0
0
0
0
0
0
0
0
0
0
0
0
0
0
0
0
0
0
0
0
0
0
0
0
0
0
0
0
0
0
0
0
0
0
0
0
0
0
0
0
0
0
0
0
0
0
0
0
0
0
0
0
0
0
0
0
0
0
0
0
0
0
0
0
0
0
0
0
0
0
0
0
0
0
0
0
0
0
0
0
0
0
0
0
0
0
0
0
0
0
0
0
0
0
0
0
0
0
0
0
0
0
0
0
0
0
0
0
0
0
0
0
0
0
0
0
0
0
0
0
0
0
0
0
0
0
0
0
0
0
0
0
0
0
0
0
0
0
0
0
0
0
0
0
0
0
0
0
0
0
0
0
0
0
0
0
0
0
0
0
0
0
0
0
0
0
0
0
0
0
0
0
0
0
0
0
0
0
0
0
0
0
0
0
0
0
0
0
0
0
0
0
0
0
0
0
0
0
0
0
0
0
0
0
0
0
0
0
0
0
0
0
0
0
0
0
0
0
0
0
0
0
0
0
0
0
0
0
0
0
0
0
0
0
0
0
0
0
0
0
0
0
0
0
0
0
0
0
0
0
0
0
0
0
0
0
0
0
0
0
0
0
0
0
0
0
0
0
0
0
0
0
0
0
0
0
0
0
0
0
0
0
0
0
0
0
0
0
0
0
0
0
0
0
0
0
0
0
0
0
0
0
0
0
0
0
0
0
0
0
0
0
0
0
0
0
0
0
0
0
0
0
0
0
0
0
0
0
0
0
0
0
0
0
0
0
0
0
0
0
0
0
0
0
0
0
0
0
0
0
0
0
0
0
0
0
0
0
0
0
0
0
0
0
0
0
0
0
0
0
0
0
0
0
0
0
0
0
0
0
0
0
0
0
0
0
0
0
0
0
0
0
0
0
0
0
0
0
0
0
0
0
0
0
0
0
0
0
0
0
0
0
0
0
0
0
0
0
0
0
0
0
0
0
0
0
0
0
0
0
0
0
0
0
0
0
0
0
0
0
0
0
0
0
0
0
0
0
0
0
0
0
0
0
0
0
0
0
0
0
0
0
0
0
0
0
0
0
0
0
0
0
0
0
0
0
0
0
0
0
0
0
0
0
0
0
0
0
0
0
0
0
0
0
0
0
0
0
0
0
0
0
0
0
0
0
0
0
0
0
0
0
0
0
0
0
0
0
0
0
0
0
0
0
0
0
0
0
0
0
0
0
0
0
0
0
0
0
0
0
0
0
0
0
0
0
0
0
0
0
0
0
0
0
0
0
0
0
0
0
0
0
0
0
0
0
0
0
0
0
0
0
0
0
0
0
0
0
0
0
0
0
0
0
0
0
0
0
0
0
0
0
0
0
0
0
0
0
0
0
0
0
0
0
0
0
0
0
0
0
0
0
0
0
0
0
0
0
0
0
0
0
0
0
0
0
0
0
0
0
0
0
0
0
0
0
0
0
0
0
0
0
0
0
0
0
0
0
0
0
0
0
0
0
0
0
0
0
0
0
0
0
0
0
0
0
0
0
0
0
0
0
0
0
0
0
0
0
0
0
0
0
0
0
0
0
0
0
0
0
0
0
0
0
0
0
0
0
0
0
0
0
0
0
0
0
0
0
0
0
0
0
0
0
0
0
0
0
0
0
0
0
0
0
0
0
0
0
0
0
0
0
0
0
0
0
0
0
0
0
0
0
0
0
0
0
0
0
0
0
0
0
0
0
0
0
0
0
0
0
0
0
0
0
0
0
0
0
0
0
0
0
0
0
0
0
0
0
0
0
0
0
0
0
0
0
0
0
0
0
0
0
0
0
0
0
0
0
0
0
0
0
0
0
0
0
0
0
0
0
0
0
0
0
0
0
0
0
0
0
0
0
0
0
0
0
0
0
0
0
0
0
0
0
0
0
0
0
0
0
0
0
0
0
0
0
0
0
0
0
0
0
0
0
0
0
0
0
0
0
0
0
0
0
0
0
0
0
0
0
0
0
0
0
0
0
0
0
0
0
0
0
0
0
0
0
0
0
0
0
0
0
0
0
0
0
0
0
0
0
0
0
0
0
0
0
0
0
0
0
0
0
0
0
0
0
0
0
0
0
0
0
0
0
0
0
0
0
0
0
0
0
0
0
0
0
0
0
0
0
0
0
0
0
0
0
0
0
0
0
0
0
0
0
0
0
0
0
0
0
0
0
0
0
0
0
0
0
0
0
0
0
0
0
0
0
0
0
0
0
0
0
0
0
0
0
0
0
0
0
0
0
0
0
0
0
0
0
0
0
0
0
0
0
0
0
0
0
0
0
0
0
0
0
0
0
0
0
0
0
0
0
0
0
0
0
0
0
0
0
0
0
0
0
0
0
0
0
0
0
0
0
0
0
0
0
0
0
0
0
0
0
0
0
0
0
0
0
0
0
0
0
0
0
0
0
0
0
0
0
0
0
0
0
0
0
0
0
0
0
0
0
0
0
0
0
0
0
0
0
0
0
0
0
0
0
0
0
0
0
0
0
0
0
0
0
0
0
0
0
0
0
0
0
0
0
0
0
0
0
0
0
0
0
0
0
0
0
0
0
0
0
0
0
0
0
0
0
0
0
0
0
0
0
0
0
0
0
0
0
0
0
0
0
0
0
0
0
0
0
0
0
0
0
0
0
0
0
0
0
0
0
0
0
0
0
0
0
0
0
0
0
0
0
0
0
0
0
0
0
0
0
0
0
0
0
0
0
0
0
0
0
0
0
0
0
0
0
0
0
0
0
0
0
0
0
0
0
0
0
0
0
0
0
0
0
0
0
0
0
0
0
0
0
0
0
0
0
0
0
0
0
0
0
0
0
0
0
0
0
0
0
0
0
0
0
0
0
0
0
0
0
0
0
0
0
0
0
0
0
0
0
0
0
0
0
0
0
0
0
0
0
0
0
0
0
0
0
0
0
0
0
0
0
0
0
0
0
0
0
0
0
0
0
0
0
0
0
0
0
0
0
0
0
0
0
0
0
0
0
0
0
0
0
0
0
0
0
0
0
0
0
0
0
0
0
0
0
0
0
0
0
0
0
0
0
0
0
0
0
0
0
0
0
0
0
0
0
0
0
0
0
0
0
0
0
0
0
0
0
0
0
0
0
0
0
0
0
0
0
0
0
0
0
0
0
0
0
0
0
0
0
0
0
0
0
0
0
0
0
0
0
0
0
0
0
0
0
0
0
0
0
0
0
0
0
0
0
0
0
0
0
0
0
0
0
0
0
0
0
0
0
0
0
0
0
0
0
0
0
0
0
0
0
0
0
0
0
0
0
0
0
0
0
0
0
0
0
0
0
0
0
0
0
0
0
0
0
0
0
0
0
0
0
0
0
0
0
0
0
0
0
0
0
0
0
0
0
0
0
0
0
0
0
0
0
0
0
0
0
0
0
0
0
0
0
0
0
0
0
0
0
0
0
0
0
0
0
0
0
0
0
0
0
0
0
0
0
0
0
0
0
0
0
0
0
0
0
0
0
0
0
0
0
0
0
0
0
0
0
0
0
0
0
0
0
0
0
0
0
0
0
0
0
0
0
0
4.828388743873582326439784e-53
7.71767684106126495051186e-51
6.011334327895683452954622e-49
3.073886295523147280460925e-47
1.119546009933640739919766e-45
2.822922830837284998778556e-44
5.831144738391074284304537e-43
1.462514677759092924321237e-41
4.709033813068343473046191e-40
1.276926459539091125669527e-38
3.513064947227482230392963e-37
4.8560804161340037729424e-36
1.076223701112809117066901e-29
1.252761996305224286250955e-29
1.368961652926369555710408e-29
1.479355085907919520047453e-29
1.594171323098019206577349e-29
1.716118143711581520906327e-29
1.846277671372698239905201e-29
1.985306538777540816664617e-29
2.133687110322601594636916e-29
2.292349553028764107610691e-29
2.46337550575678585224438e-29
2.647524015335106291441859e-29
2.83880889229878706438682e-29
3.032001024751410084745047e-29
3.252096666810004429076184e-29
3.573706991010508803603696e-29
4.011438095191383528575371e-29
4.264684042661254456238904e-29
4.289102934571306773893382e-29
4.286819344433074287630845e-29
4.276314137009360657259346e-29
4.25255620976945179320527e-29
4.21445422334217205920258e-29
4.160668275747154278061047e-29
4.087935386374303431601723e-29
4.010177172526695387544827e-29
3.968677412990583953641076e-29
3.961664427377622028101098e-29
3.961273519115495909035169e-29
3.961221039924747740148488e-29
3.961041231006617878413498e-29
3.959736529133450559379709e-29
3.954212391464086732916442e-29
3.938934002641564909252432e-29
3.907752066291552578019894e-29
3.85680288739861524494714e-29
3.785704470355501350767649e-29
3.695764731880410264108731e-29
3.587924334828493779997892e-29
3.463605894957427469683431e-29
3.327356868787540726793676e-29
3.18612033883620003398668e-29
3.042611520896926931307334e-29
2.888753959300304826476962e-29
2.704266651444541720370371e-29
2.458004815463020565063231e-29
2.113707663456877525161901e-29
1.659239228956627993116794e-29
1.182723028191420043783885e-29
8.625552837965306546418329e-30
7.263424916806889752991254e-30
6.598164598387993402983215e-30
5.866057467865761150380909e-30
4.550515867080211302049323e-30
3.061583663006098777011876e-30
2.655563479273958231791646e-30
2.667552277387371043328933e-30
2.896852937728559342899116e-30
4.09389296308689691033238e-30
9.506667421974929490740348e-30
2.253726853917324434720936e-29
5.527855746143595206419927e-27
7.36864477223558341478951e-26
4.92632117712914550384783e-25
1.790770685404985536534909e-24
2.909224673980902374689292e-24
2.900834642055700300332034e-24
2.251221920378464142134212e-24
8.95661595674862560453802e-25
1.020118432844531025721715e-25
1.751550246243945578924792e-27
2.339397629477969145488516e-30
1.295886706083634800468968e-34
2.711414883003144376146489e-39
6.395980831097816713456856e-44
1.546214169578423213242905e-48
3.434252876528616144381675e-53
7.214125212775872424192731e-58
1.491222365603326162156736e-62
3.113309559467064635354659e-67
6.518050005266500708888995e-72
1.333443178188276200855103e-76
2.62517201268878517583964e-81
4.994575151485292027139555e-86
9.289982254677699348108631e-91
1.697407991758770160843483e-95
3.032592335534077315749759e-100
5.258538560524879548490201e-105
8.815638534009963169460577e-110
1.429942237379522037429443e-114
2.248633211060214959725438e-119
3.426649259242967164414865e-124
5.044548302473459601859722e-129
7.151114002254854067692945e-134
9.752132829659402848394012e-139
1.281159899595115252554675e-143
1.748313168277045435530272e-148
7.442572317794197145902424e-150
1.546210462168231489010785e-150
3.267019037736348962105929e-151
6.115289918260234074657904e-152
1.055067225956966296620861e-152
1.693697156763320425562612e-153
2.530017921169684095892019e-154
3.533807170691210995329571e-155
4.644287557924074343231836e-156
5.775568683897079149887614e-157
6.834575637486349595680147e-158
7.742851237289122104656049e-159
8.452011452568206262919889e-160
8.949648737544717161129505e-161
9.255607642566919618831255e-162
9.411033197605022741436179e-163
9.465089956220438885911725e-164
9.464196548878373911058121e-165
9.446378464631713387806287e-166
9.441083489827906020940579e-167
9.474076958093038560450915e-168
9.578844447891536605607304e-169
9.821902398045329008842974e-170
1.036401534079884703591556e-170
1.161467536021759946333635e-171
1.462369408869122451404504e-172
2.206399303886430902407656e-173
4.066300765611897711649568e-174
8.712418937730911304953656e-175
2.023157002496861215911372e-175
4.847094181010777455182306e-176
1.167876398949386454800146e-176
2.797070702127606449663276e-177
6.624810781168549597706346e-178
1.548204889118871477579903e-178
3.566412691024311900856348e-179
8.094413999100981120683637e-180
1.809679792407373230917733e-180
3.985153166916493681995595e-181
8.643837103119271112023146e-182
1.846683158472438436656531e-182
3.886126961368835032922036e-183
8.055641652198342957706689e-184
1.644996522187484995909106e-184
3.309305399535178951642526e-185
6.559073315841488529443078e-186
1.280883274021946660168289e-186
2.46471235119769416934494e-187
4.673486407754557549500799e-188
8.732975986934317008245199e-189
1.60826814613225997442789e-189
2.919158711286755716652081e-190
5.222612746150807119884674e-191
9.210352007286597330603865e-192
1.601215868955341670380738e-192
2.744323233686084325246149e-193
4.637226353661145212410072e-194
7.72581604496822964481846e-195
1.269165528997375850802061e-195
2.05591057385817922198196e-196
3.284171501622661422806892e-197
5.173757763800621918465781e-198
8.038358925737449487023993e-199
1.231775343578494654652557e-199
1.861742359824689826678552e-200
2.775569786901529171872821e-201
4.081775756395665786117161e-202
5.921474486609826650454955e-203
8.47447916055803488382128e-204
1.196511018820059585972921e-204
1.666703787604571115716522e-205
2.290630730563603952560753e-206
3.1061541315874534419224e-207
4.156022745634339752298255e-208
5.48700026257224335152761e-209
7.148398964953493041113474e-210
9.189954081919000810792561e-211
1.165902176893578773997601e-211
1.459714764277114691693387e-212
1.803612995666250485570728e-213
2.19937855214861602887774e-214
2.646970838884355247609369e-215
3.14413801451656616552543e-216
3.68610346730022164630542e-217
4.265368850777858302320488e-218
4.871671222962932635680931e-219
5.492123491683251118636471e-220
6.111554463441134078107755e-221
6.713048185156283969810438e-222
7.278663444730771005410573e-223
7.790295240073523619613753e-224
8.230622987438559159099658e-225
8.584077440783462415681561e-226
8.83775160520703923648954e-227
8.982181571971551902354903e-228
9.011931534632888867023264e-229
8.925932652105115280752876e-230
8.727546366628234330811008e-231
8.42434698449946382929865e-232
8.027643068069744532174295e-233
7.551779684279456355472428e-234
7.013281335591310092327807e-235
6.429906633625580181360657e-236
5.819689502907321671693727e-237
5.200037921438891017662516e-238
4.586950823799979102387403e-239
3.994398446949762954449829e-240
3.433893180960698789336704e-241
2.914259131472992334890859e-242
2.441591180918229573526778e-243
2.019380013689220193116912e-244
1.648769434879959559235319e-245
1.328906815452327636911684e-246
1.057346489498576146818968e-247
8.304687725343696353271534e-249
6.438829952544131236269179e-250
4.927904357440806330336636e-251
3.722911810227823713960437e-252
2.776268003886324761731526e-253
2.043575471808094924566909e-254
1.484781726891184391688989e-255
1.064801511783166480172389e-256
7.537021828216112355170962e-258
5.26558213731007825216685e-259
3.630767377661361067342506e-260
2.470843567933421372147543e-261
1.659494094243370642032475e-262
1.099963073307342249221048e-263
7.195155508159518825863408e-265
4.644608827090776934927529e-266
2.958636523222144922799165e-267
1.859746118724654073246708e-268
1.153508423444767221492276e-269
7.059563409042456133195874e-271
4.262939689737156735780343e-272
2.539794108189628933695855e-273
1.492893773535074893906431e-274
8.657307590522378068547461e-276
4.952701777620638404633259e-277
2.795040453143528025279076e-278
1.55596977304995417710131e-279
8.543999943395249357507281e-281
4.627511950844612773380507e-282
2.471943912618435579082377e-283
1.302303614177494436799897e-284
6.766211234151521808954969e-286
3.466689175084091596845363e-287
1.751442695538001776226001e-288
8.724961223175119189688555e-290
4.285403467573267517899551e-291
2.075170888937043206848463e-292
9.906550192577722321223161e-294
4.661966099745676009459888e-295
2.162542641130140670659108e-296
9.887331477656814352560001e-298
4.455345732393614447170846e-299
1.978516941958057036791568e-300
8.658076002504398462028346e-302
3.733296865637844474149215e-303
1.586055721198678026459129e-304
6.638399781332515712301062e-306
2.737099853951086163995255e-307
1.11163527938324419200159e-308
4.446717251614914443504302e-310
1.751790523258435127564558e-311
6.79593296118861700326538e-313
2.595959191730114662170161e-314
9.763035281033732321093755e-316
3.614641576589477301794902e-317
1.317430985292142322512262e-318
4.726726033763205688137234e-320
1.645238600651350992107974e-321
8.399115979301191251001669e-323
0
0
0
0
0
0
0
0
0
0
0
0
0
0
0
0
0
0
0
0
0
0
0
0
0
0
0
0
0
0
0
0
0
0
0
0
0
0
0
0
0
0
0
0
0
0
0
0
0
0
0
0
0
0
0
0
0
0
0
0
0
0
0
0
0
0
0
0
0
0
0
0
0
0
0
0
0
0
0
0
0
0
0
0
0
0
0
0
0
0
0
0
0
0
0
0
0
0
0
0
0
0
0
0
0
0
0
0
0
0
0
0
0
0
0
0
0
1.168666131980837604148963e-53
6.951784125059530210191258e-51
9.455598505462069424007124e-49
6.81872367231641811652962e-47
3.328714002748987404786125e-45
1.223402807156526222535386e-43
3.387477826158179271042889e-42
7.368869488936270541011373e-41
1.454774712493110769530036e-39
3.251660291470807923166401e-38
7.512243316342344285779915e-37
2.053635915521015856806871e-35
3.083378453616653268087913e-34
4.195279648060368262027678e-28
5.272845890885940337559495e-28
6.100181988937283864709824e-28
6.943239195604854271722002e-28
7.860210206359600529397984e-28
8.870974691335211745456393e-28
9.98720385266148712473815e-28
1.12190158926479498239996e-27
1.257682793928258773733126e-27
1.407313702582045652320791e-27
1.572260986216747228187384e-27
1.7535301796788625999206e-27
1.951180557837008045738809e-27
2.16693715666505455215685e-27
2.408809748296746303374221e-27
2.687320900157389500237807e-27
2.996371858268343762247601e-27
3.307447890164038437172205e-27
3.601369146490160180057118e-27
3.878169456735965058823721e-27
4.135450958871587481223714e-27
4.366584088145677105429626e-27
4.59618213571734184324522e-27
4.916493990716223711427236e-27
5.490919166183226090332068e-27
6.191831831322777070447323e-27
6.438700593796620466795208e-27
6.445132672150256611074577e-27
6.435282148066719073856669e-27
6.396105373487057877335011e-27
6.304169765613246734258113e-27
6.155795496507147727422411e-27
6.018057202959967543458757e-27
5.947459239546620485724817e-27
5.913750546528418261099156e-27
5.883792363869722718480234e-27
5.838592020199937892680645e-27
5.758471128288869029185732e-27
5.62171901511048661394472e-27
5.412385685296852693292892e-27
5.128593877571497707626611e-27
4.776986881186555235670016e-27
4.35547214917392258190914e-27
3.850579816534622388945353e-27
3.266317304655360981383798e-27
2.65877110811146134875405e-27
2.110907162954433205918685e-27
1.669059570005058912002805e-27
1.342787206589107365219523e-27
1.121529725321822421632246e-27
9.586169628935661567671344e-28
7.858961473299244552618281e-28
5.705437132666160290023064e-28
4.297437731160415013972643e-28
4.113516019512620826948597e-28
4.164035257649371153992618e-28
4.653303742435962042853198e-28
7.128138716130028788159275e-28
1.634665559351913842961637e-27
5.113791422434706028350062e-27
1.250957289463108474602198e-26
1.169194474504050261776927e-24
1.258276098479745768704844e-23
6.753691486904346196254665e-23
1.703339288014146384945065e-22
1.983512509365329137757057e-22
1.776923992712665541005416e-22
9.976287136291037348772585e-23
2.065806191733289288261323e-23
8.585301732590046743765366e-25
3.601712578181415081735452e-27
8.345577547546522546537322e-31
2.213808368143120561306428e-35
5.48088503115348966534751e-40
1.346517739415913037930747e-44
3.265872472259881686856088e-49
7.760899918093298406891362e-54
1.79683254961549933305042e-58
4.084788390748495974515115e-63
9.157517713302597957412338e-68
2.004632195980243226867216e-72
4.241464011903468735109835e-77
8.67939748466612197730731e-82
1.729171644132622859795817e-86
3.364765586238521752853449e-91
6.374984382627881850162272e-96
1.169521531320999695514619e-100
2.071086525854729381453993e-105
3.542062041349732910470619e-110
5.858469291672275498670403e-115
9.365372500338338269850958e-120
1.4431088872372547754736e-124
2.13773186184917210544672e-129
3.04236881359024817477868e-134
4.165470830655079357727598e-139
5.495585485848867688408257e-144
8.907745158790846721377904e-149
8.09074664286490770380202e-150
1.963513699149910513379178e-150
4.305591797028984698992505e-151
8.435156963088043332933535e-152
1.51570489316536898102136e-152
2.507155604958191813205678e-153
3.837557919857242059603292e-154
5.479918123333817215500536e-155
7.355145190656536515408364e-156
9.343256610580910086517866e-157
1.131192583318673954425532e-157
1.314725737039913434500844e-158
1.477628488450905242566238e-159
1.617611283228462248590244e-160
1.736865472819158237066529e-161
1.840560039848068305686746e-162
1.935165252091366805868462e-163
2.027327973915046829964229e-164
2.123820235917119549173085e-165
2.233203880842351464592771e-166
2.370913246974543041206307e-167
2.572725250903082001888592e-168
2.930225751474676710685215e-169
3.68397132017098591992322e-170
5.46574689595158073257967e-171
9.919680829469431451858747e-172
2.126984172786280775399061e-172
5.021229696453782815858049e-173
1.23418113899762460430037e-173
3.063467728191746205265199e-174
7.570868934586490550687052e-175
1.851263058356599900628031e-175
4.466870768201754145863736e-176
1.062271480774929582774e-176
2.488496247918945688480034e-177
5.741294563684406409812788e-178
1.304418372445769714564275e-178
2.918443412047741267215066e-179
6.430162448699190874988512e-180
1.395233522091911813323998e-180
2.981600758749924415545584e-181
6.2756161059172031293775e-182
1.301056916476665955432887e-182
2.657047666226018638520375e-183
5.345599067175052153311444e-184
1.059543250535218087822045e-184
2.069177261066235679888779e-185
3.981665626334314587720587e-186
7.55007269715048322188382e-187
1.4108719542539382289082e-187
2.598391842213669945384727e-188
4.716634777581455124741811e-189
8.439172741306317460035772e-190
1.488457456158402725570077e-190
2.588035347058416486465969e-191
4.436381661430790292591261e-192
7.497898906876547667261064e-193
1.24947813405355797734324e-193
2.053155819081374670091076e-194
3.326935998184720748398234e-195
5.316437688624149184061356e-196
8.378659861232433661017053e-197
1.302354134305721101739072e-197
1.996672451771879177691685e-198
3.019462300856908809866061e-199
4.504210311888531424879714e-200
6.628183854392675920804894e-201
9.622262771912862232633936e-202
1.378116644772868108938382e-202
1.947329950477394508946994e-203
2.714913509257322781986213e-204
3.734675122006986458802094e-205
5.06928748947757105168202e-206
6.78976236101165116906092e-207
8.974112302255613313909593e-208
1.17050381640899273594459e-208
1.506652655479280475705686e-209
1.913931641718777736363286e-210
2.399529642497889045885623e-211
2.969102032923843474624578e-212
3.626066589332504511092377e-213
4.370890043762059340489177e-214
5.200423457827609135309765e-215
6.107352617214709081727102e-216
7.079832041389011874909787e-217
8.101366505502594260511011e-218
9.150991431516597335131866e-219
1.020378330224728479591466e-219
1.123170462694592474624974e-220
1.220475722706693507733221e-221
1.309238586217233800091227e-222
1.386504513637099218210779e-223
1.449581991571313007183185e-224
1.496197636386361395739296e-225
1.52463194023888846630831e-226
1.53382437890016588967347e-227
1.523438937615250840940224e-228
1.493884421093026242874495e-229
1.44628784265140749604571e-230
1.382423298996950560211444e-231
1.304602570903683761282827e-232
1.215536824790859608263376e-233
1.118180899611265473751591e-234
1.015572557269411641280561e-235
9.106787186516301738845991e-237
8.06259219173578427963619e-238
7.047562425723371671313464e-239
6.082146600115451014233651e-240
5.182353791925331760554501e-241
4.359608454054336629778417e-242
3.620893250117708472445034e-243
2.969127446107301197820742e-244
2.403717560977762289809455e-245
1.921213479892020601434523e-246
1.516006402423113429384534e-247
1.181013359200779149756941e-248
9.083047881971433246471082e-250
6.896449776356451566851566e-251
5.169284084545951692248058e-252
3.825068696113764904802891e-253
2.794118124198272414716903e-254
2.014833348962305010789747e-255
1.434214122696430381885562e-256
1.00776783105904620110654e-257
6.989872225699827619330977e-259
4.785533103091829698346982e-260
3.233950121185583589800222e-261
2.157084916030393246082645e-262
1.420105418412822218211521e-263
9.227441126701146558244731e-265
5.917478939600293602172505e-266
3.745188838681350653410126e-267
2.339260215315172387834787e-268
1.44190563901146805758264e-269
8.770689355041264720507146e-271
5.264458424958012476244484e-272
3.118032590655640991559001e-273
1.822207645866808346340147e-274
1.05072244034844443789303e-275
5.977686194646570174997747e-277
3.355170314580594138763039e-278
1.857860581743210678082598e-279
1.014866310001916032888319e-280
5.468662403144916549788219e-282
2.906756573088158796732506e-283
1.523945688158548967582678e-284
7.880266091902824954816761e-286
4.018827836551617597536083e-287
2.021253855935724290031931e-288
1.002490613275343569968468e-289
4.902888743046537820867058e-291
2.364337737336107307984168e-292
1.124152971636441572923494e-293
5.269526285569737062396489e-295
2.4351122897664099455404e-296
1.109271326102680557628121e-297
4.980778060297255544038131e-299
2.204273719324572590044533e-300
9.614133968601378438362444e-302
4.132354371535940996860606e-303
1.750221967221192480496423e-304
7.304009389081246354451452e-306
3.003070537034076870220894e-307
1.216376708718858586490312e-308
4.853223038673551855090538e-310
1.907269718355732747140468e-311
7.381976245795249696361975e-313
2.813646994015113075068269e-314
1.055989305986051812396594e-315
3.902088475274268699950285e-317
1.419366609342108309506772e-318
5.08146516747722070685601e-320
1.808280263778962351686242e-321
8.399115979301191251001669e-323
0
0
0
0
0
0
0
0
0
0
0
0
0
0
0
0
0
0
0
0
0
0
0
0
0
0
0
0
0
0
0
0
0
0
0
0
0
0
0
0
0
0
0
0
0
0
0
0
0
0
0
0
0
0
0
0
0
0
0
0
0
0
0
0
0
0
0
0
0
0
0
0
0
0
0
0
0
0
0
0
0
0
0
0
0
0
0
0
0
0
0
0
0
0
0
0
0
0
0
0
0
0
0
0
0
0
0
0
0
0
0
0
0
0
0
1.875604362845502220254982e-54
1.181942197517960856656676e-51
3.908001873165717210217507e-49
4.805870533743864281955279e-47
3.363710160704414051843723e-45
1.627569006174831874617826e-43
5.974012603345510735676124e-42
1.689163398565021302271345e-40
3.847531866664185544368233e-39
7.384586007581659162574851e-38
1.355119005333410262017568e-36
2.452854731721337587077703e-35
6.038571597653593860842551e-34
9.522124286693918554971007e-33
7.348232365110125673643905e-27
9.741151861162718774060464e-27
1.178595221165810035060068e-26
1.400723433687123325303429e-26
1.654781480004015507631251e-26
1.947907629259645260323415e-26
2.285991217008641603282616e-26
2.675068796326181072376074e-26
3.121754052934412450181212e-26
3.633493592710735504951081e-26
4.21849455475320069018644e-26
4.885128704412527159356243e-26
5.642255868720099353587144e-26
6.502482773908461323998434e-26
7.484729916219641204220765e-26
8.606716996292075781472217e-26
9.869577338326746737761966e-26
1.125779849053772498056479e-25
1.275900642046081365797688e-25
1.436521013174444528134252e-25
1.604615375258225888305312e-25
1.776974857668872631840639e-25
1.961687884145077048837477e-25
2.187721224807235534914003e-25
2.492914180503371577330479e-25
2.862688411487013796509046e-25
3.191490538737560935929113e-25
3.421091056485362006158373e-25
3.60155914266866223190729e-25
3.734810429332564438950332e-25
3.762571882521562311401395e-25
3.760952195317364650289344e-25
3.756199785366167831933506e-25
3.749127343589244405971945e-25
3.739269272949333609588899e-25
3.723357373343611127406785e-25
3.695933889962876385329281e-25
3.649631754764614153000031e-25
3.576091990705652649440717e-25
3.466819805506077620880412e-25
3.310421215335114581085058e-25
3.084548033522819927079385e-25
2.751822634186273768881568e-25
2.29035264829778316013992e-25
1.775469727634351327895975e-25
1.363162291447946602492223e-25
1.102522101353482518677188e-25
9.304231345428832531783338e-26
7.923444959560812463921345e-26
6.597697486289765707268928e-26
5.092827924952606242820353e-26
3.535544856804757241684073e-26
2.788121055994411548107154e-26
2.721127717023925698066839e-26
2.756821849974249247476306e-26
3.07301125436060282070564e-26
4.632826384680152117918094e-26
1.078252208933443725611232e-25
3.095397965736866022691976e-25
1.001626221836668576581818e-24
2.352327499137393597356632e-24
1.04899353665824042191757e-22
9.103139062104382745041113e-22
3.723173880308330192643236e-21
6.255928967198781465543055e-21
6.187249102008427057108257e-21
4.516261857408963450194016e-21
1.535731456650933313480956e-21
1.346432910321848133651679e-22
1.480710439910492019544304e-24
1.110473532422564251820554e-27
3.648408564862201765079364e-32
8.86071105424184058702014e-37
2.017700226497907180283441e-41
4.375835666598197494029451e-46
9.793576130645934474860796e-51
2.296895759947620420513347e-55
5.502817235718899289466477e-60
1.308025660509383157052376e-64
3.035332366073132778138159e-69
6.880606222199047972819075e-74
1.53545727867884523511531e-78
3.374736307648079777020901e-83
7.239150143459179788816955e-88
1.499176284560068997098356e-92
2.980057694015906383070975e-97
5.690200178259054072708778e-102
1.047300196128553894739733e-106
1.859476503442099831797448e-111
3.173741691870508861687189e-116
5.183764618415184645295103e-121
8.0890294961777326696576e-126
1.208498638650759345608128e-130
1.734552538222655150657071e-135
2.395270301509273855074595e-140
3.176777789911981984406735e-145
2.463554243845941471936178e-149
6.272628974958377988822058e-150
1.534593285902107849062986e-150
3.343150383846850519915931e-151
6.683595775686368012604961e-152
1.21836317816194246959241e-152
2.034887646507367199803551e-153
3.147362967920694557328597e-154
4.549339666335918541915044e-155
6.194761987570115944844677e-156
8.00972854304462664778425e-157
9.912047159584917937277148e-158
1.183175566612775899093341e-158
1.372664258211402369001088e-159
1.558811733698055788300514e-160
1.743767328338696605379169e-161
1.931913250058290813536677e-162
2.129448065075930166783805e-163
2.345408441638520942182643e-164
2.59626539561527931783711e-165
2.919659395697190243951914e-166
3.412624216383704707507446e-167
4.336034517825337877652501e-168
6.396337755054670462295461e-169
1.14945223901581563060509e-169
2.468587988759102727321494e-170
5.922379299551152899494674e-171
1.493231722537579141940599e-171
3.819106254703588782968446e-172
9.742560011948489121396267e-173
2.460529716789418138850728e-173
6.132409559349852992382105e-174
1.506177940419015312972013e-174
3.643365729766697994302477e-175
8.677636583543682231911318e-176
2.034853747962407403621386e-176
4.697780387437307330264423e-177
1.067805285640071193683873e-177
2.389751852655928567790628e-178
5.26625539092161839432118e-179
1.142798445119365955043216e-179
2.442239268289155667955902e-180
5.140330495179616083793039e-181
1.065644181203582414762261e-181
2.176136375375892649600496e-182
4.377711317058599867444182e-183
8.676198780959156463328852e-184
1.6942097283005947836096e-184
3.259820439690342917794777e-185
6.180762388887632963254433e-186
1.154900995881211051939497e-186
2.126834396014647365654281e-187
3.860468758095789524693184e-188
6.907079093202994099114885e-189
1.21822281171237987539522e-189
2.118195957168212601802887e-190
3.631124554100418100250729e-191
6.137331066138837035754822e-192
1.022841712326228599252171e-192
1.680947537186495232254064e-193
2.724221442029281656259872e-194
4.35409743529129026557071e-195
6.863500084383830901097779e-196
1.067108286801794355609478e-196
1.636475826084469152812287e-197
2.475547007235274479423085e-198
3.69415235782608419669566e-199
5.43827760843182393294744e-200
7.898254776369913139081219e-201
1.131732289956849964829486e-201
1.59999288306421145713752e-202
2.231888610028887624618503e-203
3.072025590564510844987401e-204
4.17245927896202570162064e-205
5.592305165524977863263213e-206
7.39668311488948967639884e-207
9.654857974519220703161926e-208
1.243747556161768789657653e-208
1.58128532759048886069146e-209
1.984236803285059014730461e-210
2.457508715492197165638573e-211
3.004190260432864269513645e-212
3.624954402714108329757381e-213
4.317494705005285906031492e-214
5.076052415334590305968769e-215
5.89109108215721602928596e-216
6.749172714027245590403283e-217
7.633079763049967423533264e-218
8.522211048743763300806285e-219
9.393258084214756466734133e-220
1.022114292576778765729915e-220
1.098017218156849313308659e-221
1.164533718788605141131425e-222
1.219367067933794555051472e-223
1.260555828015226012486911e-224
1.286590079720388826442372e-225
1.296503147121338018820789e-226
1.289931061882858585560723e-227
1.267134676063750470982112e-228
1.228982556211352899308686e-229
1.176896215907295521512101e-230
1.11276248764613207543202e-231
1.03882054132480133922552e-232
9.575329421279069567405456e-234
8.714510305140386332907932e-235
7.830847545775518328900823e-236