/*--------------------------------*- C++ -*----------------------------------*\
| =========                 |                                                 |
| \\      /  F ield         | OpenFOAM: The Open Source CFD Toolbox           |
|  \\    /   O peration     | Version:  v2012                                 |
|   \\  /    A nd           | Website:  www.openfoam.com                      |
|    \\/     M anipulation  |                                                 |
\*---------------------------------------------------------------------------*/
FoamFile
{
    version     2.0;
    format      ascii;
    class       volScalarField;
    location    "1.7";
    object      alpha.water;
}
// * * * * * * * * * * * * * * * * * * * * * * * * * * * * * * * * * * * * * //

dimensions      [0 0 0 0 0 0 0];


internalField   nonuniform List<scalar> 
96000
(
0
0
0
0
0
0
0
0
0
0
0
0
0
0
0
0
0
0
0
0
0
0
0
0
0
0
0
0
0
0
0
0
0
0
0
0
0
0
0
0
0
0
0
0
0
0
0
0
0
0
0
0
0
0
0
0
0
0
0
0
0
0
0
0
0
0
0
0
0
0
0
0
0
0
0
0
0
0
0
0
0
0
0
0
0
0
0
0
0
0
0
0
0
0
0
0
0
0
0
0
0
0
0
0
0
0
0
0
0
0
0
0
0
0
0
0
0
0
0
0
0
0
0
0
0
0
0
0
0
0
0
0
0
0
0
0
0
0
0
0
0
0
0
0
0
0
0
0
0
0
0
0
0
0
0
0
0
0
0
0
0
0
0
0
0
0
0
0
0
0
0
0
0
0
0
0
0
0
0
0
0
0
0
0
0
0
0
0
0
0
0
0
0
0
0
0
0
0
0
0
0
0
0
0
0
0
0
0
0
0
0
0
0
0
0
0
0
0
0
0
0
0
0
0
0
0
0
0
0
0
0
0
0
0
0
0
0
0
0
0
0
0
0
0
0
0
0
0
0
0
0
0
0
0
0
0
0
0
0
0
0
0
0
0
0
0
0
0
0
0
0
0
0
0
0
0
0
0
0
0
0
0
0
0
0
0
0
0
0
0
0
0
0
0
0
0
0
0
0
0
0
0
0
0
0
0
0
0
0
0
0
0
0
0
0
0
0
0
0
0
0
0
0
0
0
0
0
0
0
0
0
0
0
0
0
0
0
0
0
0
0
0
0
0
0
0
0
0
0
0
0
0
0
0
0
0
0
0
0
0
0
0
0
0
0
0
0
0
0
0
0
0
0
0
0
0
0
0
0
0
0
0
0
0
0
0
0
0
0
0
0
0
0
0
0
0
0
0
0
0
0
0
0
0
0
0
0
0
0
0
0
0
0
0
0
0
0
0
0
0
0
0
0
0
0
0
0
0
0
0
0
0
0
0
0
0
0
0
0
0
0
0
0
0
0
0
0
0
0
0
0
0
0
0
0
0
0
0
0
0
0
0
0
0
0
0
0
0
0
0
0
0
0
0
0
0
0
0
0
0
0
0
0
0
0
0
0
0
0
0
0
0
0
0
0
0
0
0
0
0
0
0
0
0
0
0
0
0
0
0
0
0
0
0
0
0
0
0
0
0
0
0
0
0
0
0
0
0
0
0
0
0
0
0
0
0
0
0
0
0
0
0
0
0
0
0
0
0
0
0
0
0
0
0
0
0
0
0
0
0
0
0
0
0
0
0
0
0
0
0
0
0
0
0
0
0
0
0
0
0
0
0
0
0
0
0
0
0
0
0
0
0
0
0
0
0
0
0
0
0
0
0
0
0
0
0
0
0
0
0
0
0
0
0
0
0
0
0
0
0
0
0
0
0
0
0
0
0
0
0
0
0
0
0
0
0
0
0
0
0
0
0
0
0
0
0
0
0
0
0
0
0
0
0
0
0
0
0
0
0
0
0
0
0
0
0
0
0
0
0
0
0
0
0
0
0
0
0
0
0
0
0
0
0
0
0
0
0
0
0
0
0
0
0
0
0
0
0
0
0
0
0
0
0
0
0
0
0
0
0
0
0
0
0
0
0
0
0
0
0
0
0
0
0
0
0
0
0
0
0
0
0
0
0
0
0
0
0
0
0
0
0
0
0
0
0
0
0
0
0
0
0
0
0
0
0
0
0
0
0
0
0
0
0
0
0
0
0
0
0
0
0
0
0
0
0
0
0
0
0
0
0
0
0
0
0
0
0
0
0
0
0
0
0
0
0
0
0
0
0
0
0
0
0
0
0
0
0
0
0
0
0
0
0
0
0
0
0
0
0
0
0
0
0
0
0
0
0
0
0
0
0
0
0
0
0
0
0
0
0
0
0
0
0
0
0
0
0
0
0
0
0
0
0
0
0
0
0
0
0
0
0
0
0
0
0
0
0
0
0
0
0
0
0
0
0
0
0
0
0
0
0
0
0
0
0
0
0
0
0
0
0
0
0
0
0
0
0
0
0
0
0
0
0
0
0
0
0
0
0
0
0
0
0
0
0
0
0
0
0
0
0
0
0
0
0
0
0
0
0
0
0
0
0
0
0
0
0
0
0
0
0
0
0
0
0
0
0
0
0
0
0
0
0
0
0
0
0
0
0
0
0
0
0
0
0
0
0
0
0
0
0
0
0
0
0
0
0
0
0
0
0
0
0
0
0
0
0
0
0
0
0
0
0
0
0
0
0
0
0
0
0
0
0
0
0
0
0
0
0
0
0
0
0
0
0
0
0
0
0
0
0
0
0
0
0
0
0
0
0
0
0
0
0
0
0
0
0
0
0
0
0
0
0
0
0
0
0
0
0
0
0
0
0
0
0
0
0
0
0
0
0
0
0
0
0
0
0
0
0
0
0
0
0
0
0
0
0
0
0
0
0
0
0
0
0
0
0
0
0
0
0
0
0
0
0
0
0
0
0
0
0
0
0
0
0
0
0
0
0
0
0
0
0
0
0
0
0
0
0
0
0
0
0
0
0
0
0
0
0
0
0
0
0
0
0
0
0
0
0
0
0
0
0
0
0
0
0
0
0
0
0
0
0
0
0
0
0
0
0
0
0
0
0
0
0
0
0
0
0
0
0
0
0
0
0
0
0
0
0
0
0
0
0
0
0
0
0
0
0
0
0
0
0
0
0
0
0
0
0
0
0
0
0
0
0
0
0
0
0
0
0
0
0
0
0
0
0
0
0
0
0
0
0
0
0
0
0
0
0
0
0
0
0
0
0
0
0
0
0
0
0
0
0
0
0
0
0
0
0
0
0
0
0
0
0
0
0
0
0
0
0
0
0
0
0
0
0
0
0
0
0
0
0
0
0
0
0
0
0
0
0
0
0
0
0
0
0
0
0
0
0
0
0
0
0
0
0
0
0
0
0
0
0
0
0
0
0
0
0
0
0
0
0
0
0
0
0
0
0
0
0
0
0
0
0
0
0
0
0
0
0
0
0
0
0
0
0
0
0
0
0
0
0
0
0
0
0
0
0
0
0
0
0
0
0
0
0
0
0
0
0
0
0
0
0
0
0
0
0
0
0
0
0
0
0
0
0
0
0
0
0
0
0
0
0
0
0
0
0
0
0
0
0
0
0
0
0
0
0
0
0
0
0
0
0
0
0
0
0
0
0
0
0
0
0
0
0
0
0
0
0
0
0
0
0
0
0
0
0
0
0
0
0
0
0
0
0
0
0
0
0
0
0
0
0
0
0
0
0
0
0
0
0
0
0
0
0
0
0
0
0
0
0
0
0
0
0
0
0
0
0
0
0
0
0
0
0
0
0
0
0
0
0
0
0
0
0
0
0
0
0
0
0
0
0
0
0
0
0
0
0
0
0
0
0
0
0
0
0
0
0
0
0
0
0
0
0
0
0
0
0
0
0
0
0
0
0
0
0
0
0
0
0
0
0
0
0
0
0
0
0
0
0
0
0
0
0
0
0
0
0
0
0
0
0
0
0
0
0
0
0
0
0
0
0
0
0
0
0
0
0
0
0
0
0
0
0
0
0
0
0
0
0
0
0
0
0
0
0
0
0
0
0
0
0
0
0
0
0
0
0
0
0
0
0
0
0
0
0
0
0
0
0
0
0
0
0
0
0
0
0
0
0
0
0
0
0
0
0
0
0
0
0
0
0
0
0
0
0
0
0
0
0
0
0
0
0
0
0
0
0
0
0
0
0
0
0
0
0
0
0
0
0
0
0
0
0
0
0
0
0
0
0
0
0
0
0
0
0
0
0
0
0
0
0
0
0
0
0
0
0
0
0
0
0
0
0
0
0
0
0
0
0
0
0
0
0
0
0
0
0
0
0
0
0
0
0
0
0
0
0
0
0
0
0
0
0
0
0
0
0
0
0
0
0
0
0
0
0
0
0
0
0
0
0
0
0
0
0
0
0
0
0
0
0
0
0
0
0
0
0
0
0
0
0
0
0
0
0
0
0
0
0
0
0
0
0
0
0
0
0
0
0
0
0
0
0
0
0
0
0
0
0
0
0
0
0
0
0
0
0
0
0
0
0
0
0
0
0
0
0
0
0
0
0
0
0
0
0
0
0
0
0
0
0
0
0
0
0
0
0
0
0
0
0
0
0
0
0
0
0
0
0
0
0
0
0
0
0
0
0
0
0
0
0
0
0
0
0
0
0
0
0
0
0
0
0
0
0
0
0
0
0
0
0
0
0
0
0
0
0
0
0
0
0
0
0
0
0
0
0
0
0
0
0
0
0
0
0
0
0
0
0
0
0
0
0
0
0
0
0
0
0
0
0
0
0
0
0
0
0
0
0
0
0
0
0
0
0
0
0
0
0
0
0
0
0
0
0
0
0
0
0
0
0
0
0
0
0
0
0
0
0
0
0
0
0
0
0
0
0
0
0
0
0
0
0
0
0
0
0
0
0
0
0
0
0
0
0
0
0
0
0
0
0
0
0
0
0
0
0
0
0
0
0
0
0
0
0
0
0
0
0
0
0
0
-7.877156691626841144945557e-51
-1.044309566624196231972769e-38
-3.877806657449466313257058e-37
-7.18082049687868358421552e-36
-8.841701351297245567827084e-35
-8.14380726777464800732549e-34
-5.985228547186139352658218e-33
-3.656174884684604332875505e-32
-1.909426133248591989372957e-31
-8.702924978360538919979846e-31
-3.516861070567397475198526e-30
-1.275760846665956860716285e-29
-4.196366895311675813667275e-29
-4.639621995266491843145513e-29
-5.115420046207178082875056e-29
-5.623915329749867553282344e-29
-6.164861096399343831375462e-29
-6.737552919581764888408837e-29
-7.340773027630490886467732e-29
-7.972737329208028246973227e-29
-8.631047087499162846571011e-29
-9.31264741192286541160592e-29
-1.001379490769354149218172e-28
-1.073003693639043362393106e-28
-1.145620497694341319495207e-28
-1.218642451822030145317721e-28
-1.291414374472286217437151e-28
-1.363218298102428048918597e-28
-1.43328064274174521343482e-28
-1.500781714283906258010388e-28
-1.564867551240011484744184e-28
-1.62466405848976355150336e-28
-1.679293269921678207838441e-28
-1.727891476671964475418492e-28
-1.769628847946001000775645e-28
-1.803730062166984411456551e-28
-1.829495363384316329914599e-28
-1.846321368109232820237228e-28
-1.853720878005719044769575e-28
-1.851340911048265216349026e-28
-1.838978154183717006146454e-28
-1.816591069367083835324968e-28
-1.78430795551654551069485e-28
-1.742430382616851157139909e-28
-1.691431569328735499190743e-28
-1.631949467454723835043014e-28
-1.564774537784318234107012e-28
-1.490832441582376345410599e-28
-1.411162117211674790068105e-28
-1.326889947293783545057605e-28
-1.239200932884652579850473e-28
-1.149307962313834092103464e-28
-1.058420380298626900294694e-28
-9.677131173837096825049574e-29
-8.782976244575154468031869e-29
-7.911957707328194914324933e-29
-7.073177101125407134296712e-29
-6.274445094597445309661949e-29
-5.522160767317126929023661e-29
-4.821246445565877455793167e-29
-4.175137750715783291035601e-29
-3.585825745822856151434685e-29
-3.053945604064548681432456e-29
-2.578904227703077818779912e-29
-2.159037832262544032711314e-29
-1.791789740463938145881844e-29
-1.473898512663649402004418e-29
-1.201587031396676844115733e-29
-9.707441685622855168882236e-30
-7.770920726343366704366874e-30
-6.163337780725489373148689e-30
-4.842776127123028720444636e-30
-3.769366227196830994478151e-30
-3.34557118482608901236755e-30
-2.827985920670349485356921e-30
-2.282988123402247881123545e-30
-1.764454396008949709663116e-30
-1.308376693965555240672719e-30
-9.326133568429138055525458e-31
-6.401184478167402296391869e-31
-4.237192994977246729536039e-31
-2.708702602749398688634043e-31
-1.674406982577745496705453e-31
-1.00203172499194838607457e-31
-5.811462669607217171796569e-32
-3.269636265909416711892451e-32
-1.786149562572792313195629e-32
-9.482142291287823884243986e-33
-4.895598766399586374082192e-33
-2.459990859352629890954973e-33
-1.203889398979802158567889e-33
-5.741741551957141061270004e-34
-2.670338642091669121914094e-34
-1.211716618523570757310516e-34
-5.367600566084753380560739e-35
-2.322326497433437997478297e-35
-9.818340968500779707203502e-36
-4.058089527479535610220948e-36
-1.640441460693484678197771e-36
-6.488332429942558945122671e-37
-2.51193112811113383286261e-37
-9.522383636653516723453487e-38
-3.535904321453436819680622e-38
-1.286526763717774479994217e-38
-4.588182909037979020124147e-39
-1.604353898534304924890918e-39
-5.502061196489197620734484e-40
-1.851140104982853022094307e-40
-6.111665076079371570050411e-41
-1.980610775756097811973608e-41
-6.301826982084714089631765e-42
-1.969090492723434979377773e-42
-6.043614829496847465289784e-43
-1.822451399833403863201656e-43
-5.400521502993285438619859e-44
-1.572986509183240788692687e-44
-4.504115261879543221053431e-45
-1.268152978711212969835085e-45
-3.511485249611248059817325e-46
-9.564088295995839440037791e-47
-2.56273381439782619476548e-47
-6.756808138177079749245358e-48
-1.753178826918141660190937e-48
-4.477372879972660584963659e-49
-1.125631374270851587100771e-49
-2.786160412534665900552036e-50
-6.790658787628684909318625e-51
-1.629934786543591012157786e-51
-3.853324673004989663857082e-52
-8.973471245122930425646614e-53
-2.058710368850360142396699e-53
-4.653592433538867459931972e-54
-1.036540336896045461453208e-54
-2.275272220765089557191162e-55
-4.922349376608039223316834e-56
-1.049649135814320577279734e-56
-2.206415856708056862466701e-57
-4.572345816879554588718615e-58
-9.341881562666694978189191e-59
-1.881942931170697462503563e-59
-3.73840765732453385327038e-60
-7.323258331729085521637717e-61
-1.414773566864263064862212e-61
-2.695626860066365494860909e-62
-5.065777923445131526621681e-63
-9.390033906464309791228986e-64
-1.716886783864190015868352e-64
-3.096607059803302772497349e-65
-5.509528446775406195419246e-66
-9.670254631863472494619446e-67
-1.674422017633652844651854e-67
-2.860228691890365450275816e-68
-4.820003009281858207098833e-69
-8.013140807388760446780917e-70
-1.314199380608467867159484e-70
-2.126240128605856246947163e-71
-3.393441511955147210264708e-72
-5.342248510023630001912524e-73
-8.295365451304858287896315e-74
-1.270396088125572400039013e-74
-1.918627292670871742064263e-75
-2.857164675758751508560005e-76
-4.194751504837833365431991e-77
-6.070466331482177663357654e-78
-8.657323179050008773981498e-79
-1.216382955629775623664815e-79
-1.683196538096662809291999e-80
-2.292959289912015159492153e-81
-3.073487134912112638056367e-82
-4.050990196253287316693362e-83
-5.24606631463507405362817e-84
-6.668042492327844906126436e-85
-8.307437718682725227567249e-86
-1.012642824660977479363359e-86
-1.20473657024005093755402e-87
-1.393963270657557016876641e-88
-1.560541521825567745788549e-89
-1.67653104376968083550924e-90
-1.704504669329622795734332e-91
-1.596492806140997284468899e-92
-1.293388191861045098384351e-93
-7.250126250304487837095824e-95
1.889570693077078636614135e-96
1.53703408170800737869621e-96
3.412821548701193952876039e-97
5.910731445365109096828167e-98
9.120590311573706162318846e-99
1.312132037200494814813796e-99
1.797401180332545029637683e-100
2.37148222027362158637768e-101
3.034823755952023107624262e-102
3.784129004807889674384211e-103
4.61193386138108983290307e-104
5.506396962420168543390837e-105
6.451346378506697942755082e-106
7.426610623795927910878279e-107
8.408640094896087445832524e-108
9.371400670662338305660751e-109
1.028749639245867872436581e-109
1.112945551771998032248931e-110
1.187109635327019246492252e-111
1.248887829107308976233651e-112
1.29631408626272913548809e-113
1.32791399715243569755764e-114
1.342780532594632658220251e-115
1.340616507208689964742363e-116
1.321741051378983750582976e-117
1.287060284206089536082985e-118
1.238005203894977163039437e-119
1.176442277253134742873765e-120
1.104564086131402447589241e-121
1.024768519934727575319738e-122
9.395353229343671759072779e-124
8.513083376922875497768248e-125
7.623906382069022780994199e-126
6.748580883191703850734891e-127
5.904949001975541299977928e-128
5.107527223400427646818462e-129
4.367328587414393319566461e-130
3.69189576112510144608342e-131
3.085512089649318701681408e-132
2.549549809277548594805461e-133
2.082911278287605837198451e-134
1.682519900289887546017454e-135
1.343821600418103630868396e-136
1.061264284904897593358651e-137
8.287306320720290585153681e-139
6.399078566540625084101508e-140
4.885859468800509305519479e-141
3.688826947860354468732062e-142
2.753992559961536789371465e-143
2.033138358867373744950199e-144
1.484234393275517038353313e-145
1.071446127082836106326211e-146
7.648400672887674677725049e-148
5.398869051992795783928229e-149
3.768474313306907279572394e-150
2.601099628262973371374996e-151
1.775311175414304139955737e-152
1.19816006333161147588806e-153
7.996026315415850038223435e-155
5.276527259081211377791131e-156
3.442958179171919568646447e-157
2.221361932623939334842278e-158
1.417114003508479694170339e-159
8.938846229137296949094095e-161
5.574964994367634214406434e-162
3.437787961676519916337439e-163
2.095965030705494045916113e-164
1.263421345041807707078325e-165
7.529434094258795857438449e-167
4.436256259151161128329868e-168
2.584049265466786731617819e-169
1.488003813078235541900466e-170
8.470618247061564755428713e-172
4.766748204971948867427871e-173
2.651630981708863518470634e-174
1.458058570623081450806648e-175
7.924915080002845706974582e-177
4.257535544386996509392064e-178
2.260745773515049588130497e-179
1.18647944458429434366348e-180
6.15415630838322607437028e-182
3.154720627895456679201764e-183
1.598163208013072444912817e-184
8.00078211612529843792042e-186
3.958016408146316991736944e-187
1.934812079040761276150342e-188
9.345396690219696789895902e-190
4.460007733710772127661628e-191
2.102969800731754872344474e-192
9.796481101236394025230133e-194
4.508440679535867104277496e-195
2.049655084381744703280672e-196
9.204745731893361396869374e-198
4.083167904377841902245508e-199
1.789016603923689202519434e-200
7.741762749464433292861383e-202
3.308641854104477888627018e-203
1.396431122721806336625808e-204
5.820013017476862874114486e-206
2.395174980628918396607959e-207
9.732690574684661646395852e-209
3.904665410493634449936836e-210
1.546543546635409292254315e-211
6.046991877538634972410247e-213
2.333921781162868913263205e-214
8.89145710743766933268021e-216
3.343248156309627345055985e-217
1.240628834584649176740113e-218
4.543185562125661253701657e-220
1.641690921338420348839206e-221
5.853300003661895975678426e-223
2.058988630714164305063748e-224
7.145215637025494590672315e-226
2.44595534320519685058061e-227
8.258784936469019495771157e-229
2.750299337518238241136452e-230
9.032349014194247510219517e-232
2.925082872610798355617432e-233
9.340091291456436492480866e-235
2.940338080534826021544906e-236
9.125008143921895407318208e-238
2.791352172779678711714997e-239
8.415807214565188317823171e-241
2.500517577241286545344926e-242
7.32097684440325714999119e-244
2.111853989925602011398155e-245
6.001556905410762280179544e-247
1.68003088497600306420244e-248
4.632022185911338882436462e-250
1.257677595798544390258267e-251
3.362460321701734580527707e-253
8.85067620755221831345749e-255
2.293337032833785012193625e-256
5.848850563324595384318956e-258
1.467985405229983349293383e-259
3.625409906122301819249126e-261
8.808671757937090542363909e-263
2.105297764717176815390664e-264
4.948759069553274345619711e-266
1.143896165268100654733946e-267
2.599621424349824483474319e-269
5.807514422423676787144168e-271
1.275112008207002081112278e-272
2.751078461235576203284413e-274
5.831368161590469167608828e-276
1.214127820051626335168498e-277
2.482536886979340677608496e-279
4.9839352342422855009108e-281
9.821990144105479023441607e-283
1.899673407327403058126026e-284
3.605034213354607645397126e-286
6.710981870662756151820812e-288
1.225182001956301621525492e-289
2.193011425969258133437684e-291
3.847608240487214992899624e-293
6.61500584062930608956928e-295
1.114126363640945904335825e-296
1.837698681051732408396677e-298
2.967670937435758858897838e-300
4.690505117760961807586869e-302
7.253395562951097900645661e-304
1.097060890046648990164281e-305
1.622301006955436777665953e-307
2.344664994986422164783275e-309
3.310620241873548938902137e-311
4.564997004243465352377534e-313
6.144556098946747720891617e-315
8.071056390462603545668428e-317
1.027656543349792811887263e-318
1.976262583364986176706275e-320
0
0
0
0
0
0
0
0
0
0
0
0
0
0
0
0
0
0
0
0
0
0
0
0
0
0
0
0
0
0
0
0
0
0
0
0
0
0
0
0
0
0
0
0
0
0
0
-2.366472112435046280282651e-36
-8.834832900058862035697192e-35
-1.644552412461952177462686e-33
-2.035077107624687693947124e-32
-1.883401794627548795559568e-31
-1.390450494616445653501284e-30
-8.529825612418356130163016e-30
-4.472231660456333930382103e-29
-2.045765876241993520305586e-28
-8.294071905217303559881266e-28
-3.017507855575398449609508e-27
-9.950760296490980081857938e-27
-2.999089275906343595122785e-26
-8.318947697457770067406499e-26
-8.91653249339949565916506e-26
-9.527159400025724357825417e-26
-1.014701287289627843907086e-25
-1.077176731255094309645869e-25
-1.139660283334049764706603e-25
-1.201623383672726064443723e-25
-1.262495138837409190296087e-25
-1.321668010626772428635591e-25
-1.378504990084994216772111e-25
-1.432348247037965357653585e-25
-1.482529195227897550771781e-25
-1.528379857527764849472126e-25
-1.569245356376958768710242e-25
-1.604497293573526466400123e-25
-1.633547723419422074827773e-25
-1.655863366865427773779094e-25
-1.670979664956453331911591e-25
-1.67851423089901552022961e-25
-1.678179234799784235549676e-25
-1.669792246659157711271642e-25
-1.653285074180923063882451e-25
-1.628710164301582671083579e-25
-1.596244192027619272392001e-25
-1.556188537017852130954862e-25
-1.508966445870089301579061e-25
-1.455116793370516887594473e-25
-1.3952844847452019465636e-25
-1.330207677624445119369952e-25
-1.260702140328758943464161e-25
-1.187643194806758471307122e-25
-1.11194581039260441223539e-25
-1.034543511007068899838745e-25
-9.563668267666843959749778e-26
-8.783220557799525597486238e-26
-8.012710996079063084905381e-26
-7.260130950889452555543177e-26
-6.53268487089195092785188e-26
-5.836660748989459304493193e-26
-5.177334255034548313788284e-26
-4.558908879007781031759485e-26
-3.984492735888752839471659e-26
-3.456110996459509878552468e-26
-2.974751328090316639337317e-26
-2.540438351118555900252551e-26
-2.152332018845300203700054e-26
-1.808844069557062228412775e-26
-1.507766308306680770533083e-26
-1.246404457556630792150409e-26
-1.021711645260268748668045e-26
-8.304162288192911862658404e-27
-6.691395174194879425814054e-27
-5.344999755551068623002965e-27
-4.232015847414058708264346e-27
-3.321051289335114949895127e-27
-2.582821816316046811136674e-27
-1.990524527286453848035548e-27
-1.520058616489548472782828e-27
-1.150112192817396982804121e-27
-8.621372119625428691090859e-28
-6.402359043881666260132833e-28
-5.111593881072846738714187e-28
-3.907416379692437686104963e-28
-2.866366656846350266063919e-28
-2.021925349836271853309714e-28
-1.373979984994344915162019e-28
-9.009271811304801846314349e-29
-5.708702657376717867553722e-29
-3.500332572638688445225769e-29
-2.079407528590134100174677e-29
-1.198166686990436967660012e-29
-6.703334174834224221845922e-30
-3.644796524719217327644883e-30
-1.927725162736408456144514e-30
-9.92562880579509584439545e-31
-4.978947668314463945394343e-31
-2.434924877925537467111088e-31
-1.161669002136620184439951e-31
-5.409895289345540610967645e-32
-2.460639074313122065742698e-32
-1.093669969327517363292416e-32
-4.75243123072057745303246e-33
-2.019923310980869248146303e-33
-8.400967538577945380536122e-34
-3.420374590362229657016392e-34
-1.36374178715598775306317e-34
-5.326714319261738577388221e-35
-2.03892573782856028344081e-35
-7.650611429653690510207844e-36
-2.814973372333655386899765e-36
-1.015920699903695882193416e-36
-3.5972489637033853694531e-37
-1.250024357047739321026544e-37
-4.263935691960535422879523e-38
-1.428068651020409538099271e-38
-4.697117389101922858695821e-39
-1.517578349654259558464052e-39
-4.817235360894112013475705e-40
-1.50264963677026972555131e-40
-4.606949707549270104052532e-41
-1.388496284182674760527692e-41
-4.114605372618558850174986e-42
-1.199051456197217403716214e-42
-3.436726421947277313335879e-43
-9.689881980254101940948818e-44
-2.687973158435542702881817e-44
-7.337169885373914484091226e-45
-1.971022501562540540126082e-45
-5.211635695276733727797631e-46
-1.356544679207198751370868e-46
-3.4763857132620614821178e-47
-8.772229462846190643131694e-48
-2.179880874465810787750692e-48
-5.335155986283887065143121e-49
-1.28618130311315045275399e-49
-3.054537275780276228540275e-50
-7.146981368572977088157872e-51
-1.647699666992589116329624e-51
-3.743296639848810965112413e-52
-8.380930543296615874712675e-53
-1.849402716443537692423371e-53
-4.022627974992006464076638e-54
-8.625090899734312761330941e-55
-1.823172033978967779305354e-55
-3.799574045005188238678556e-56
-7.807589813636988581627906e-57
-1.581990111860500670573069e-57
-3.160992409933074316259187e-58
-6.228773704293715878488317e-59
-1.210502796991112897777306e-59
-2.320256992608413499727383e-60
-4.386664625703433681284548e-61
-8.180499698564914351557344e-62
-1.504836109817986526540586e-62
-2.730720421911274255588979e-63
-4.888282145898914731586717e-64
-8.632489912126110908875431e-65
-1.503916571346503224497801e-65
-2.584778640507603783128756e-66
-4.382639671674380761504553e-67
-7.330916187382478918097438e-68
-1.209718006821271258738873e-68
-1.969256742188294898163197e-69
-3.162254154007908547806502e-70
-5.008938849387029582000157e-71
-7.825661627387034856076668e-72
-1.205833121147692200903203e-72
-1.832314277522471428603632e-73
-2.745396244433257449226037e-74
-4.055422953797572227080309e-75
-5.904902990817392961353693e-76
-8.472996893334313738297917e-77
-1.197815898844535903609083e-77
-1.667734162306587226629514e-78
-2.285964875616340273359398e-79
-3.083179718086282069487609e-80
-4.089227960990958796485293e-81
-5.329082446396597273915123e-82
-6.816973711445848992574857e-83
-8.548412738650336316532401e-84
-1.04899020016138541450712e-84
-1.256630286978473587085765e-85
-1.464607207809294132339447e-86
-1.652489975669267058121768e-87
-1.790866414530640255857577e-88
-1.839703769963265535940314e-89
-1.746949536076892957752463e-90
-1.447583426313938013399057e-91
-8.633551057494278516356304e-93
9.655294093279554002813157e-95
1.533718466165700519818505e-94
3.557359805899234794515937e-95
6.279817044084666757692446e-96
9.810659856066118114876747e-97
1.424958435468924218907451e-97
1.967841130527278646614913e-98
2.615264711611745680175778e-99
3.369319962954481570710366e-100
4.227893452429280941816691e-101
5.184079802970497952584316e-102
6.225820446852267767059639e-103
7.335828597362038826920105e-104
8.491842773038492877030321e-105
9.667227542627239844674478e-106
1.08319121095429762937461e-106
1.19536275254282427046136e-107
1.29993747632737842646207e-108
1.393703173337193451395396e-109
1.473699042869666858007955e-110
1.537370789689814871949067e-111
1.582705782368458009030055e-112
1.608338317605181005741518e-113
1.613617339068798235209877e-114
1.598631972775745778282213e-115
1.564193656912005989465231e-116
1.511777112922110314592238e-117
1.44342557826853156639007e-118
1.361628294086624220507372e-119
1.269179985427798837201542e-120
1.16903286167871452327735e-121
1.064151484293533010208797e-122
9.573797875087568614818348e-124
8.513277711490991480007172e-125
7.482831477851627989788354e-126
6.501507803242172276145893e-127
5.584203451476031242452014e-128
4.741605199876350576845943e-129
3.980362894163066479958772e-130
3.303447821309732778346822e-131
2.710644331381964012562682e-132
2.199121692290000542023511e-133
1.764036685803382970852487e-134
1.399124344438081933310282e-135
1.097243245819379274534614e-136
8.508517064692055262596324e-138
6.524009840834148724807358e-139
4.946403747582503810657522e-140
3.708363223474809268643847e-141
2.749130581478139930828655e-142
2.015258190911394641465677e-143
1.460794996417346796113863e-144
1.047059526194879797419747e-145
7.42124102903382253984653e-147
5.201200659269935044372798e-148
3.604547523179695183522582e-149
2.470105440024204127747112e-150
1.67376584167185528583238e-151
1.12146222364673729679335e-152
7.429866459719040239630178e-154
4.867196332782537779486036e-155
3.152628069173514105399453e-156
2.019094223071721168516607e-157
1.278567975407515890980774e-158
8.005110309779923007882256e-160
4.95540810035555251268584e-161
3.032857193817744714645897e-162
1.83516970900139308230076e-163
1.097850071269744183716486e-164
6.492958957076612871477588e-166
3.796338151375355394378484e-167
2.194315233402017706170542e-168
1.253816080202435967916421e-169
7.082027975500469875337468e-171
3.95419633050634918753409e-172
2.182342533476650610800392e-173
1.190524997696928875723311e-174
6.419354439453436673849665e-176
3.421111693935950391263066e-177
1.801986534211770124252701e-178
9.380566104625000494347231e-180
4.825964258173853741698692e-181
2.453581683236732266703156e-182
1.23271198571029175448116e-183
6.119982663317021870850929e-185
3.002261512779225210986902e-186
1.455252499574674656938324e-187
6.969488745503600270231798e-189
3.297743768216993105950692e-190
1.54158139453047772667877e-191
7.119166836854504043552534e-193
3.247761099980007732298913e-194
1.463557010648611017516652e-195
6.514540226553270182876682e-197
2.864070879788724246411532e-198
1.243616090947957063809669e-199
5.33295097944768146007275e-201
2.258411261388566390852701e-202
9.444250851977559631117434e-204
3.899736519861835740665423e-205
1.589936781400969846009834e-206
6.399914783154547171989558e-208
2.543258440409735043923298e-209
9.977007420105715576708747e-211
3.863442135980424394873736e-212
1.476668249344283283992399e-213
5.57051333729753048578842e-215
2.073861950405712039359289e-216
7.6191166073497415131752e-218
2.762081935862922049802225e-219
9.879656508170419021859345e-221
3.486469211017757316581377e-222
1.213760535380635565672378e-223
4.16818497920283514930655e-225
1.411856132291870855029539e-226
4.716557738456522633899217e-228
1.553860113565214861050213e-229
5.047897763741110753160167e-231
1.616887673955718582922623e-232
5.105961940704642653388801e-234
1.58949950972971518729461e-235
4.87734970334578845649547e-237
1.475035565371628966707634e-238
4.39611897018220923443181e-240
1.291031278010033530581567e-241
3.735556006840890677318239e-243
1.064815549725114291155317e-244
2.989801165676289121861285e-246
8.268101154067456577778152e-248
2.251697989242157424844503e-249
6.038085188326661337762835e-251
1.594099372810017819165383e-252
4.142851258390304751099872e-254
1.059717679634246871331875e-255
2.667628191707226516808466e-257
6.607547925367907188085217e-259
1.610160034627175254441851e-260
3.859609374023413590961389e-262
9.098989533208126458973867e-264
2.109338808127634432367842e-265
4.807603147746875682029495e-267
1.077118469166416525241897e-268
2.371767527882111274745166e-270
5.131842618952561165645613e-272
1.09089605595180308868327e-273
2.277801598345832366061273e-275
4.670698205264708447862648e-277
9.403492146486807903486628e-279
1.858416453452885761162026e-280
3.604502904393893875877875e-282
6.859537865081200545995284e-284
1.280521072155006749723366e-285
2.344297152046997906178446e-287
4.207852892436640712600683e-289
7.403112360957617655583031e-291
1.276303115948202269783707e-292
2.155531811752639204388889e-294
3.56522534629180915166017e-296
5.773211294275841863278388e-298
9.149696818610398532789627e-300
1.418764156825088280981366e-301
2.151680245057574911572293e-303
3.190457845726327899137921e-305
4.623526882103959064582386e-307
6.545900962616355498296619e-309
9.050332134488823281303991e-311
1.221446342421082482842636e-312
1.60844849639942840944241e-314
2.065392025874747053275728e-316
2.58890398420813189148522e-318
1.976262583364986176706275e-320
0
0
0
0
0
0
0
0
0
0
0
0
0
0
0
0
0
0
0
0
0
0
0
0
0
0
0
0
0
0
0
0
0
0
0
0
0
0
0
0
0
0
0
0
0
0
-3.122078875320339977592469e-38
-4.546724330598314804171049e-35
-1.671165089250673275275182e-33
-3.088645543368622704048683e-32
-3.802728751221371611151876e-31
-3.504162332309897318561282e-30
-2.576722488173530918366203e-29
-1.574656829596528429257686e-28
-8.22480003920460607940148e-28
-3.748095218429124259815335e-27
-1.513770527228448607257069e-26
-5.485959316315020256178247e-26
-1.801938503792938220640676e-25
-5.408978121197235173971981e-25
-1.494153176157137194323273e-24
-1.623743176917604227514873e-24
-1.758501406456085037742302e-24
-1.897759844266963763259743e-24
-2.040712626229876027809064e-24
-2.186413739018976568690756e-24
-2.333777693114854524191556e-24
-2.481583592609852119889051e-24
-2.628482970497223934638564e-24
-2.773011685497549421035542e-24
-2.913606079766934187127091e-24
-3.048623476177435110377659e-24
-3.176366950673124216643211e-24
-3.295114152362983483506207e-24
-3.403149765984807845077133e-24
-3.498801024276654878844284e-24
-3.580475489323110867268685e-24
-3.646700141221081010210757e-24
-3.696160649655650950165124e-24
-3.727739570075048344243217e-24
-3.740552112062234912909724e-24
-3.733978083555741648758429e-24
-3.707688629691121521035955e-24
-3.661666465902716690221282e-24
-3.596218455180443736562862e-24
-3.511979598899779321725177e-24
-3.40990779502172176827086e-24
-3.29126905768471185242462e-24
-3.15761327470443908510422e-24
-3.010740986498726830903891e-24
-2.852662080294119302067213e-24
-2.685547683736564364261014e-24
-2.511676888044363929831007e-24
-2.33338020940958351121401e-24
-2.152981888077509262203212e-24
-1.972743211626408956722054e-24
-1.794809022804953287905038e-24
-1.621159430583520855938956e-24
-1.453568491514812082226952e-24
-1.293571280691091232979134e-24
-1.14244034832429096844726e-24
-1.001172085829333696985966e-24
-8.704830345905200510839016e-25
-7.508156930256850991824149e-25
-6.423529435864349884717e-25
-5.450398576538610576016648e-25
-4.586113636923862420901674e-25
-3.826240957620738126636061e-25
-3.164906804012413813732646e-25
-2.595147663400247772926349e-25
-2.109252421173414103504127e-25
-1.699083037779335597104717e-25
-1.356363064112974155593837e-25
-1.072926352493329467447132e-25
-8.40921404189802563687593e-26
-6.529697252127340912134798e-26
-5.022791610006816496725525e-26
-3.827153182784184302530886e-26
-2.88835783396749370331337e-26
-2.158928886170370097964655e-26
-1.598112857678853442542697e-26
-1.249095019945286174397911e-26
-9.347561595235416020586989e-27