/*--------------------------------*- C++ -*----------------------------------*\
| =========                 |                                                 |
| \\      /  F ield         | OpenFOAM: The Open Source CFD Toolbox           |
|  \\    /   O peration     | Version:  v2012                                 |
|   \\  /    A nd           | Website:  www.openfoam.com                      |
|    \\/     M anipulation  |                                                 |
\*---------------------------------------------------------------------------*/
FoamFile
{
    version     2.0;
    format      ascii;
    class       volScalarField;
    location    "0.8";
    object      alpha.water;
}
// * * * * * * * * * * * * * * * * * * * * * * * * * * * * * * * * * * * * * //

dimensions      [0 0 0 0 0 0 0];


internalField   nonuniform List<scalar> 
96000
(
0
0
0
0
0
0
0
0
0
0
0
0
0
0
0
0
0
0
0
0
0
0
0
0
0
0
0
0
0
0
0
0
0
0
0
0
0
0
0
0
0
0
0
0
0
0
0
0
0
0
0
0
0
0
0
0
0
0
0
0
0
0
0
0
0
0
0
0
0
0
0
0
0
0
0
0
0
0
0
0
0
0
0
0
0
0
0
0
0
0
0
0
0
0
0
0
0
0
0
0
0
0
0
0
0
0
0
0
0
0
0
0
0
0
0
0
0
0
0
0
0
0
0
0
0
0
0
0
0
0
0
0
0
0
0
0
0
0
0
0
0
0
0
0
0
0
0
0
0
0
0
0
0
0
0
0
0
0
0
0
0
0
0
0
0
0
0
0
0
0
0
0
0
0
0
0
0
0
0
0
0
0
0
0
0
0
0
0
0
0
0
0
0
0
0
0
0
0
0
0
0
0
0
0
0
0
0
0
0
0
0
0
0
0
0
0
0
0
0
0
0
0
0
0
0
0
0
0
0
0
0
0
0
0
0
0
0
0
0
0
0
0
0
0
0
0
0
0
0
0
0
0
0
0
0
0
0
0
0
0
0
0
0
0
0
0
0
0
0
0
0
0
0
0
0
0
0
0
0
0
0
0
0
0
0
0
0
0
0
0
0
0
0
0
0
0
0
0
0
0
0
0
0
0
0
0
0
0
0
0
0
0
0
0
0
0
0
0
0
0
0
0
0
0
0
0
0
0
0
0
0
0
0
0
0
0
0
0
0
0
0
0
0
0
0
0
0
0
0
0
0
0
0
0
0
0
0
0
0
0
0
0
0
0
0
0
0
0
0
0
0
0
0
0
0
0
0
0
0
0
0
0
0
0
0
0
0
0
0
0
0
0
0
0
0
0
0
0
0
0
0
0
0
0
0
0
0
0
0
0
0
0
0
0
0
0
0
0
0
0
0
0
0
0
0
0
0
0
0
0
0
0
0
0
0
0
0
0
0
0
0
0
0
0
0
0
0
0
0
0
0
0
0
0
0
0
0
0
0
0
0
0
0
0
0
0
0
0
0
0
0
0
0
0
0
0
0
0
0
0
0
0
0
0
0
0
0
0
0
0
0
0
0
0
0
0
0
0
0
0
0
0
0
0
0
0
0
0
0
0
0
0
0
0
0
0
0
0
0
0
0
0
0
0
0
0
0
0
0
0
0
0
0
0
0
0
0
0
0
0
0
0
0
0
0
0
0
0
0
0
0
0
0
0
0
0
0
0
0
0
0
0
0
0
0
0
0
0
0
0
0
0
0
0
0
0
0
0
0
0
0
0
0
0
0
0
0
0
0
0
0
0
0
0
0
0
0
0
0
0
0
0
0
0
0
0
0
0
0
0
0
0
0
0
0
0
0
0
0
0
0
0
0
0
0
0
0
0
0
0
0
0
0
0
0
0
0
0
0
0
0
0
0
0
0
0
0
0
0
0
0
0
0
0
0
0
0
0
0
0
0
0
0
0
0
0
0
0
0
0
0
0
0
0
0
0
0
0
0
0
0
0
0
0
0
0
0
0
0
0
0
0
0
0
0
0
0
0
0
0
0
0
0
0
0
0
0
0
0
0
0
0
0
0
0
0
0
0
0
0
0
0
0
0
0
0
0
0
0
0
0
0
0
0
0
0
0
0
0
0
0
0
0
0
0
0
0
0
0
0
0
0
0
0
0
0
0
0
0
0
0
0
0
0
0
0
0
0
0
0
0
0
0
0
0
0
0
0
0
0
0
0
0
0
0
0
0
0
0
0
0
0
0
0
0
0
0
0
0
0
0
0
0
0
0
0
0
0
0
0
0
0
0
0
0
0
0
0
0
0
0
0
0
0
0
0
0
0
0
0
0
0
0
0
0
0
0
0
0
0
0
0
0
0
0
0
0
0
0
0
0
0
0
0
0
0
0
0
0
0
0
0
0
0
0
0
0
0
0
0
0
0
0
0
0
0
0
0
0
0
0
0
0
0
0
0
0
0
0
0
0
0
0
0
0
0
0
0
0
0
0
0
0
0
0
0
0
0
0
0
0
0
0
0
0
0
0
0
0
0
0
0
0
0
0
0
0
0
0
0
0
0
0
0
0
0
0
0
0
0
0
0
0
0
0
0
0
0
0
0
0
0
0
0
0
0
0
0
0
0
0
0
0
0
0
0
0
0
0
0
0
0
0
0
0
0
0
0
0
0
0
0
0
0
0
0
0
0
0
0
0
0
0
0
0
0
0
0
0
0
0
0
0
0
0
0
0
0
0
0
0
0
0
0
0
0
0
0
0
0
0
0
0
0
0
0
0
0
0
0
0
0
0
0
0
0
0
0
0
0
0
0
0
0
0
0
0
0
0
0
0
0
0
0
0
0
0
0
0
0
0
0
0
0
0
0
0
0
0
0
0
0
0
0
0
0
0
0
0
0
0
0
0
0
0
0
0
0
0
0
0
0
0
0
0
0
0
0
0
0
0
0
0
0
0
0
0
0
0
0
0
0
0
0
0
0
0
0
0
0
0
0
0
0
0
0
0
0
0
0
0
0
0
0
0
0
0
0
0
0
0
0
0
0
0
0
0
0
0
0
0
0
0
0
0
0
0
0
0
0
0
0
0
0
0
0
0
0
0
0
0
0
0
0
0
0
0
0
0
0
0
0
0
0
0
0
0
0
0
0
0
0
0
0
0
0
0
0
0
0
0
0
0
0
0
0
0
0
0
0
0
0
0
0
0
0
0
0
0
0
0
0
0
0
0
0
0
0
0
0
0
0
0
0
0
0
0
0
0
0
0
0
0
0
0
0
0
0
0
0
0
0
0
0
0
0
0
0
0
0
0
0
0
0
0
0
0
0
0
0
0
0
0
0
0
0
0
0
0
0
0
0
0
0
0
0
0
0
0
0
0
0
0
0
0
0
0
0
0
0
0
0
0
0
0
0
0
0
0
0
0
0
0
0
0
0
0
0
0
0
0
0
0
0
0
0
0
0
0
0
0
0
0
0
0
0
0
0
0
0
0
0
0
0
0
0
0
0
0
0
0
0
0
0
0
0
0
0
0
0
0
0
0
0
0
0
0
0
0
0
0
0
0
0
0
0
0
0
0
0
0
0
0
0
0
0
0
0
0
0
0
0
0
0
0
0
0
0
0
0
0
0
0
0
0
0
0
0
0
0
0
0
0
0
0
0
0
0
0
0
0
0
0
0
0
0
0
0
0
0
0
0
0
0
0
0
0
0
0
0
0
0
0
0
0
0
0
0
0
0
0
0
0
0
0
0
0
0
0
0
0
0
0
0
0
0
0
0
0
0
0
0
0
0
0
0
0
0
0
0
0
0
0
0
0
0
0
0
0
0
0
0
0
0
0
0
0
0
0
0
0
0
0
0
0
0
0
0
0
0
0
0
0
0
0
0
0
0
0
0
0
0
0
0
0
0
0
0
0
0
0
0
0
0
0
0
0
0
0
0
0
0
0
0
0
0
0
0
0
0
0
0
0
0
0
0
0
0
0
0
0
0
0
0
0
0
0
0
0
0
0
0
0
0
0
0
0
0
0
0
0
0
0
0
0
0
0
0
0
0
0
0
0
0
0
0
0
0
0
0
0
0
0
0
0
0
0
0
0
0
0
0
0
0
0
0
0
0
0
0
0
0
0
0
0
0
0
0
0
0
0
0
0
0
0
0
0
0
0
0
0
0
0
0
0
0
0
0
0
0
0
0
0
0
0
0
0
0
0
0
0
0
0
0
0
0
0
0
0
0
0
0
0
0
0
0
0
0
0
0
0
0
0
0
0
0
0
0
0
0
0
0
0
0
0
0
0
0
0
0
0
0
0
0
0
0
0
0
0
0
0
0
0
0
0
0
0
0
0
0
0
0
0
0
0
0
0
0
0
0
0
0
0
0
0
0
0
0
0
0
0
0
0
0
0
0
0
0
0
0
0
0
0
0
0
0
0
0
0
0
0
0
0
0
0
0
0
0
0
0
0
0
0
0
0
0
0
0
0
0
0
0
0
0
0
0
0
0
0
0
0
0
0
0
0
0
0
0
0
0
0
0
0
0
0
0
0
0
0
0
0
0
0
0
0
0
0
0
0
0
0
0
0
0
0
0
0
0
0
0
0
0
0
0
0
0
0
0
0
0
0
0
0
0
0
0
0
0
0
0
0
0
0
0
0
0
0
0
0
0
0
0
0
0
0
0
0
0
0
0
0
0
0
0
0
0
0
0
0
0
0
0
0
0
0
0
0
0
0
0
0
0
0
0
0
0
0
0
0
0
0
0
0
0
0
0
0
0
0
0
0
0
0
0
0
0
0
0
0
0
0
0
0
0
0
0
0
0
0
0
0
0
0
0
0
0
0
0
0
0
0
0
0
0
0
0
0
0
0
0
0
0
0
0
0
0
0
0
0
0
0
0
0
0
0
0
0
0
0
0
0
0
0
0
0
0
0
0
0
0
0
0
0
0
0
0
0
0
0
0
0
0
0
0
0
0
0
0
0
0
0
0
0
0
0
0
0
3.500051469369558651902159e-29
2.513353761045459586418411e-27
8.202250360728742000396701e-26
1.456023435239246690156444e-24
1.859135153601767680994798e-23
5.001904733754857517669963e-22
2.586367814550039814044199e-20
6.467531785892278294020767e-19
8.45767589599717629582116e-18
7.616600790042329791229004e-17
5.904518372317549729996323e-16
2.286175995657274505131785e-15
4.539473953476763531282299e-14
4.416382409103510135986791e-14
4.225649482231339887927705e-14
3.998443219866874434494199e-14
3.73558279262030702703007e-14
3.423416980072113555237137e-14
3.053184370931802153024774e-14
2.640937812060437745040655e-14
2.229885985284276957840499e-14
1.867922681517416174737079e-14
1.572875635997484744587781e-14
1.320401145772846900214225e-14
1.082289296893440323006767e-14
8.819991183266323299998381e-15
7.613069789364113138447452e-15
6.89247209543650373283127e-15
5.995081915775308308487285e-15
3.906697495578724743833512e-15
1.081956575783733663095695e-15
4.930785424888433211461459e-16
1.023530429313541335999136e-15
7.815326130003913377114846e-15
5.893987321563284710448175e-14
3.212712658754001798848746e-13
1.209771093308334453852052e-12
2.821095601954334204709863e-12
3.528445926213743403779209e-12
2.064657219844349872448352e-12
2.086765813042755194077509e-13
1.025883853986188025312023e-15
6.28405643911759137657436e-20
2.7207183630690108400993e-25
1.672380706423265889162327e-30
1.020283432956868088134888e-35
4.877604675461136794591664e-41
2.827473292673326637503516e-46
1.703691657729959716262804e-51
8.559113486635035768369269e-57
4.86249674526122567971901e-62
2.926143050201469313433873e-67
1.538521587522508006775665e-72
8.937529611367954299023726e-78
5.505545877794730553947619e-83
3.067618120271756209723195e-88
1.849688110137381098225111e-93
1.166422145615211585172375e-98
6.713566850649858825726427e-104
3.960087695990990200872677e-109
2.381331348800449574028849e-114
1.363765789452666029861053e-119
7.947136245323745886947423e-125
4.772258325923422289364738e-130
2.834757853012908946911522e-135
1.719347578463359589075212e-140
1.063604246619610337991353e-145
3.315277943862259226283912e-149
7.609621229678458906914627e-150
1.967785145427142042658807e-150
5.949744331437946451705038e-151
1.836326435618069475756237e-151
5.867131371176097157544233e-152
1.312425559317860164068668e-152
3.150912876349302722884945e-153
8.200429996457792673493735e-154
2.313597824556906270530053e-154
6.964013179216877139399457e-155
2.177574124388080750732985e-155
6.885474318889494739371848e-156
2.156047525472682592096501e-156
6.59251369559147352758998e-157
1.951359193503715210378634e-157
5.562774337573949265292123e-158
1.522871182435894683239929e-158
3.997646369191514702492998e-159
1.005630830146063128595625e-159
2.42391924943803840310894e-160
5.599318262189248915655915e-161
1.240123583269108451325309e-161
2.634694030840971148031232e-162
5.372513067436452152641397e-163
1.05211378537344585847139e-163
1.979891913061179860110707e-164
3.582310269608802170727983e-165
6.235444888698222606563476e-166
1.044676622362437116123664e-166
1.685470222234602032870111e-167
2.619908382371395175395367e-168
3.925222867323829415399623e-169
5.670607840645944001571595e-170
7.902102616188033675349842e-171
1.062554774780559664519397e-171
1.379085023184440909091396e-172
1.72816522205526273785916e-173
2.091442155088143090463717e-174
2.444969904923487063422977e-175
2.761583037774492142615464e-176
3.014248121670776198707138e-177
3.179840830825572088540864e-178
3.242623446660455640212908e-179
3.196700760698487980455572e-180
3.046925686170025788300312e-181
2.808063400669072107108451e-182
2.502411287537715924489769e-183
2.156401760558503576945955e-184
1.796897559352342560572174e-185
1.447885013392611863799677e-186
1.128099522570322089528178e-187
8.498451692330135753790822e-189
6.189828956943805911918565e-190
4.358350521507562092688088e-191
2.966328625513138964809802e-192
1.951234395887963889866362e-193
1.240287909227232828718595e-194
7.616902182733276045778537e-196
4.518421911815803483747868e-197
2.588492698142755936450046e-198
1.431684135114592840028517e-199
7.643013460087950744522547e-201
3.936991087458402635320565e-202
1.956138301210267540976008e-203
9.371518878414340102676672e-205
4.327350567823288176338003e-206
1.925075751423531505705257e-207
8.246771434805215156466403e-209
3.400251410180731856034136e-210
1.348628454884338312587031e-211
5.142480354892996872371121e-213
1.88398309901550468273472e-214
6.626879685550689264623171e-216
2.236400352909907140270324e-217
7.235259624986631507331166e-219
2.242081485031396037218389e-220
6.648755994226372549813625e-222
1.884897621661894035231422e-223
5.102988070136875512976031e-225
1.317778830657335612910412e-226
3.241827799767468912782298e-228
7.586939542179707286812716e-230
1.686623857825139236429835e-231
3.555736764070475882656681e-233
7.096051634921638231422336e-235
1.337881527342798267367811e-236
2.377830287307169051739026e-238
3.974221638859639054711593e-240
6.229565698369343308770237e-242
9.130295488025956551153386e-244
1.246968747008562081888298e-245
1.580869601322420197348113e-247
1.85223369112733730575588e-249
1.995516845300451043249718e-251
1.96524903322646647985768e-253
1.757008798778377318599391e-255
1.414282464818742497778329e-257
1.014735798480418088392117e-259
6.409740551908799544612085e-262
3.508872324524845880542713e-264
1.630741245443014003120609e-266
6.255484118512256780991878e-269
1.901364863613871781184847e-271
4.293042986624343648707978e-274
6.400277774481013688095145e-277
4.725131346638819078622822e-280
0
0
0
0
0
0
0
0
0
0
0
0
0
0
0
0
0
0
0
0
0
0
0
0
0
0
0
0
0
0
0
0
0
0
0
0
0
0
0
0
0
0
0
0
0
0
0
0
0
0
0
0
0
0
0
0
0
0
0
0
0
0
0
0
0
0
0
0
0
0
0
0
0
0
0
0
0
0
0
0
0
0
0
0
0
0
0
0
0
0
0
0
0
0
0
0
0
0
0
0
0
0
0
0
0
0
0
0
0
0
0
0
0
0
0
0
0
0
0
0
0
0
0
0
0
0
0
0
0
0
0
0
0
0
0
0
0
0
0
0
0
0
0
0
0
0
0
0
0
0
0
0
0
0
0
0
0
0
0
0
0
0
0
0
0
0
0
0
0
0
0
0
0
0
0
0
0
0
0
0
0
0
0
0
0
0
0
0
0
0
0
0
0
0
0
0
0
0
0
0
0
0
0
0
0
0
0
0
0
0
0
0
0
0
0
0
0
0
0
0
0
0
0
0
0
9.291800343371531431964013e-30
2.614769504149200619520775e-27
1.607047676166559066636389e-25
5.184033959590630772540975e-24
1.147360046092138674363864e-22
1.632575980978319448356648e-21
1.985076358666958452944872e-20
3.848689815238425906111118e-19
7.677183215236211424489606e-18
2.390019477078325869274191e-16
4.58192770893479274280204e-15
5.410587939228630312551873e-14
2.247512727229823861092413e-13
2.978936362954933733937435e-12
2.839579552566460374976733e-12
2.599820082838948898454004e-12
2.290512284971313925209479e-12
1.950280143292342866516597e-12
1.625877562285741179038298e-12
1.347487944635478439304823e-12
1.119885511997286659156735e-12
9.350607094984885755649682e-13
7.843055414337400666145938e-13
6.535626593894830463591029e-13
5.271371195652741052581219e-13
4.222730990696476894588905e-13
3.686396886691148369172995e-13
3.402354756571567126011071e-13
2.945778729488172311540101e-13
1.764183278915266956149176e-13
4.707463762099403071326306e-14
2.410517135612310455926621e-14
6.312235594022530063307706e-14
8.326379299980390113593554e-13
9.642268901403418174978518e-12
5.786037509797446195112008e-11
1.401952897839369857088027e-10
1.475300805175238710136098e-10
6.528496880317365165710547e-11
7.304350096444846115456425e-12
6.184278379206646442501321e-13
2.194644387044794224091928e-14
5.436674682272455727258504e-17
1.736992665445163442991282e-21
1.124573084720763038283603e-26
8.83799094794649032901956e-32
5.110289600753267296114428e-37
3.197549206491731526863847e-42
2.242680889223831026896285e-47
1.275987410969627958515644e-52
7.858334180256232305944359e-58
5.293119133518962640958754e-63
3.088901075097883036547861e-68
1.939028221992136578181763e-73
1.28997926144463163750203e-78
7.829762467833717184167648e-84
5.007981532375133592187618e-89
3.314658771536051673543842e-94
2.031387475212959937298734e-99
1.25829839870214382901115e-104
7.92166557120025436105491e-110
4.797643259528235714647938e-115
2.939738549144412438404203e-120
1.851514812030692426368018e-125
1.155731834413760949377184e-130
7.308414032912172458529771e-136
4.691881665741851256968971e-141
2.95888091278558706053031e-146
4.035276346872723117849947e-149
1.05580899968023027679565e-149
3.610797452988152711348181e-150
1.306117507865316304061314e-150
4.805169801661177425489119e-151
1.80885232729459211304249e-151
4.847071343937806428379544e-152
1.400256641370378854986544e-152
4.363035827885110825915556e-153
1.441877848263462922801611e-153
4.916840849843239435354609e-154
1.684042744409567615378352e-154
5.677070742470166450565617e-155
1.859077293876469524254372e-155
5.867968941282514381048676e-156
1.777507862599673134706566e-156
5.155871994055652796910746e-157
1.430680341752556668218219e-157
3.797019133183043002370838e-158
9.640621543870810836688683e-159
2.342840510944698450925322e-159
5.452932059899026878171336e-160
1.21638537369085781322724e-160
2.60244001556079495922017e-161
5.344070776218122528648842e-162
1.054024635689385329680259e-162
1.998062346889247371952937e-163
3.64271189817591383665286e-164
6.39087017769031789175056e-165
1.079593145706744951914372e-165
1.756930382978590370720439e-166
2.755857822879287839770797e-167
4.16835836150550831764763e-168
6.08222777232564187166703e-169
8.564834014630934228786996e-170
1.164366118441022035587541e-170
1.528682281771014029070616e-171
1.938796683825184654980159e-172
2.376036189220400598004907e-173
2.814404467780013594602129e-174
3.222764368216424700325827e-175
3.568325263808731931228489e-176
3.82093025531042773994848e-177
3.957377978866352846865665e-178
3.964924447384242215894694e-179
3.843235205554030842959871e-180
3.604375767326577774915355e-181
3.270856051821887015632911e-182
2.872164189561793466013197e-183
2.440522414241580799930625e-184
2.006699797875174917085742e-185
1.596612745866662557179793e-186
1.229184320231201063958622e-187
9.156055887698620807718213e-189
6.598400600866233323731369e-190
4.600060162638043557858757e-191
3.101912355772939466171909e-192
2.022897868277155313212607e-193
1.275629380629411430601097e-194
7.776767373061386955340002e-196
4.582532899989837826546556e-197
2.60940462856145381452282e-198
1.435467375547773904316322e-199
7.626702725977864495184273e-201
3.912332776114782827170442e-202
1.937054917354989863324849e-203
9.253247340892873281464798e-205
4.263025790129580729212859e-206
1.893322299279713151442997e-207
8.102333910426091365055927e-209
3.339296019737645378816923e-210
1.324713736276643751593089e-211
5.055410144548423753049246e-213
1.854741167111059288487221e-214
6.537429795622076684660802e-216
2.212121949595581694591568e-217
7.180359933856230728020847e-219
2.233821594512579592253684e-220
6.654517881200576196995981e-222
1.896353082429529983845703e-223
5.164041137981411665490359e-225
1.342216383699839437909257e-226
3.325592570951362075216372e-228
7.843907659711152341350366e-230
1.758580842187819953742919e-231
3.741516898457804275648789e-233
7.540659935551163333278869e-235
1.436780337744962596172897e-236
2.582528002290918629513266e-238
4.368429138613858604533084e-240
6.935285997904462341162604e-242
1.030283229035743123857705e-243
1.42735655081110111014616e-245
1.837074765112161217032383e-247
2.186950188104294683880676e-249
2.395961666506942052486576e-251
2.401618476566053260415704e-253
2.187336535332884129513336e-255
1.795313463985829482193125e-257
1.314746747160468330314733e-259
8.485041664675346627052503e-262
4.750765157020969148418185e-264
2.260696365763329414885945e-266
8.889573742774237662002488e-269
2.773163556942423429474603e-271
6.434591134309843375638564e-274
9.871607256595160804023902e-277
7.51034315772549080978417e-280
0
0
0
0
0
0
0
0
0
0
0
0
0
0
0
0
0
0
0
0
0
0
0
0
0
0
0
0
0
0
0
0
0
0
0
0
0
0
0
0
0
0
0
0
0
0
0
0
0
0
0
0
0
0
0
0
0
0
0
0
0
0
0
0
0
0
0
0
0
0
0
0
0
0
0
0
0
0
0
0
0
0
0
0
0
0
0
0
0
0
0
0
0
0
0
0
0
0
0
0
0
0
0
0
0
0
0
0
0
0
0
0
0
0
0
0
0
0
0
0
0
0
0
0
0
0
0
0
0
0
0
0
0
0
0
0
0
0
0
0
0
0
0
0
0
0
0
0
0
0
0
0
0
0
0
0
0
0
0
0
0
0
0
0
0
0
0
0
0
0
0
0
0
0
0
0
0
0
0
0
0
0
0
0
0
0
0
0
0
0
0
0
0
0
0
0
0
0
0
0
0
0
0
0
0
0
0
0
0
0
0
0
0
0
0
0
0
0
0
0
0
0
0
1.485476847865703321218536e-30
4.392058766464834973876057e-28
6.569832919469776949688915e-26
3.85698977902692953330705e-24
1.27663865880053894760532e-22
2.71531085127917683750185e-21
4.111762561884974668747374e-20
5.41726618333345519476254e-19
6.422773752444766544084227e-18
6.85307172067119262222353e-17
1.390989292268805455018258e-15
3.098703969644882783625464e-14
4.372290849009502741813122e-13
2.090182400101612814923818e-12
8.446273558030537317596237e-11
7.608651494013486177440618e-11
6.451421520523155122687631e-11
5.330818712663822557194632e-11
4.353634760954175192574504e-11
3.538380602354323213712934e-11
2.875141367766653652998866e-11
2.32652606050795983123724e-11
1.85415693970301366336325e-11
1.451953261274746748179726e-11
1.129010108266396240972577e-11
9.197281732401020766146092e-12
8.332499270526301369254325e-12
7.689278845105181616480427e-12
6.22899839435356507268861e-12
3.404408935235708813028705e-12
1.429075887866996424266076e-12
1.246179982023500545454405e-12
3.852736884489135494219599e-12
4.571083642942224032379211e-11
5.740924693178591707934509e-10
2.469558279555290838525906e-09
2.579475549795250151452499e-09
1.012696023160511206731559e-09
1.565834780728537725104697e-10
2.170181808041935477813489e-11
1.36827461677256984150906e-12
2.100229501744882286815504e-14
1.105298030268854168748277e-16
5.395941679193250911584957e-20
8.619728321046022539246545e-25
1.022671156481236609355657e-29
7.320045349920644671387354e-35
6.922044311562851402200461e-40
6.669177699551020045396954e-45
4.210654027649319101001361e-50
3.524030081896786131383807e-55
3.088610540102336503124775e-60
1.987345431874845506954694e-65
1.616304790572470350393298e-70
1.313577372829324368079561e-75
8.68820822049632780275636e-81
6.754827414770121176632292e-86
5.112664048466244431186075e-91
3.26931599496050370261245e-96
2.293721093145159359488881e-101
1.610349578770106650870016e-106
1.046761653772369961132277e-111
7.234903976089433017337782e-117
5.142905818768008529050201e-122
3.517538646890048179568534e-127
2.466928513810338168556107e-132
1.731788103856898020173577e-137
1.15722434762179596532886e-142
8.22227662322152323059125e-148
2.811989489836910008203713e-149
1.054995689880279798336101e-149
4.452583077087346160042689e-150
1.896490609482370645927884e-150
8.193064819025449727046653e-151
3.589609771211119047045318e-151
1.158122973178945378538448e-151
4.003932566760601065491556e-152
1.457230505321147013129567e-152
5.429208977009026074878062e-153
2.016537879390999931089616e-153
7.32445401379075393387628e-154
2.570537397215166928409345e-154
8.657552178790721546393026e-155
2.788397255614798096764405e-155
8.574612487584851011953854e-156
2.516391478205808909797634e-156
7.04905123947376666316146e-157
1.885880995073004513231794e-157
4.822313355365120226026101e-158
1.179561329553653967454376e-158
2.762420386663330219112093e-159
6.199283163473652254078057e-160
1.334267635365739985885452e-160
2.756420087923463523835917e-161
5.469923934249618183461072e-162
1.043429627791955679490552e-162
1.914624098280859846918978e-163
3.381544340152759163579533e-164
5.751901988369383278861109e-165
9.427748625434303912549472e-166
1.489781204405369156864129e-166
2.270681637518751524135156e-167
3.339602911182755722467615e-168
4.741425188744099654682109e-169
6.500623075776014532818126e-170
8.609465043237304012237063e-171
1.10179995572627883221566e-171
1.362865018340217795201915e-172
1.62979469366291184230797e-173
1.884682484966959695378496e-174
2.107915851494320649456532e-175
2.280616777741061729929947e-176
2.387258853516926981119536e-177
2.41796126497107015652264e-178
2.369991709058525468563828e-179
2.248162946583402779011898e-180
2.064044200063120455890678e-181
1.834164760852232245217027e-182
1.577593018746874783703516e-183
1.313376806428744025223851e-184
1.058310931415170065215332e-185
8.25372568501936533048596e-187
6.229801622083473502870183e-188
4.550423533052349378043977e-189
3.21617814962306585452218e-190
2.199315194263129034352592e-191
1.454900903664934102007562e-192
9.309111492016743519841119e-194
5.760138058285207960596727e-195
3.446027638177858123366198e-196
1.992816395811931864807776e-197
1.113703853442153890984635e-198
6.013214339816189190534054e-200
3.135795657494277875132768e-201
1.578886751306641175257074e-202
7.67294934975834103766737e-204
3.59761827563583789476823e-205
1.626781107895357282147772e-206
7.091044166367203538387606e-208
2.978166827372679465625671e-209
1.204537640202065967821245e-210
4.689018753645536514686655e-212
1.755792856754739530406128e-213
6.319957876365655001211849e-215
2.185261775892021140034317e-216
7.252990602904340611159255e-218
2.308906684668647754895973e-219
7.043615508188870897714472e-221
2.057216122216273571820912e-222
5.746747187396871537711827e-224
1.533732735460485382676045e-225
3.9061706508217316134311e-227
9.481388118136285204567306e-229
2.190326846582445508453708e-230
4.80845393091508936461457e-232
1.001484472261464854042183e-233
1.975329172440063258608622e-235
3.682372537769777528897893e-237
6.473758350423349589411886e-239
1.070707487904915081497181e-240
1.661487235177396906363432e-242
2.411693869868012399497605e-244
3.263393426312631376252477e-246
4.100777379960803415159176e-248
4.764352949659206258213162e-250
5.091970851147569559186165e-252
4.976891832016835214106141e-254
4.417907072879326023339208e-256
3.532464876164988375437516e-258
2.518818403571294468949592e-260
1.581964926382214896413534e-262
8.615000475974123830058237e-265
3.98504138216813658654827e-267
1.522330423010641926005125e-269
4.610703150537861984137805e-272
1.037981181017891572397967e-274
1.543946384374581884516737e-277
1.138055782814311613768787e-280
0
0
0
0
0
0
0
0
0
0
0
0
0
0
0
0
0
0
0
0
0
0
0
0
0
0
0
0
0
0
0
0
0
0
0
0
0
0
0
0
0
0
0
0
0
0
0
0
0
0
0
0
0
0
0
0
0
0
0
0
0
0
0
0
0
0
0
0
0
0
0
0
0
0
0
0
0
0
0
0
0
0
0
0
0
0
0
0
0
0
0
0
0
0
0
0
0
0
0
0
0
0
0
0
0
0
0
0
0
0
0
0
0
0
0
0
0
0
0
0
0
0
0
0
0
0
0
0
0
0
0
0
0
0
0
0
0
0
0
0
0
0
0
0
0
0
0
0
0
0
0
0
0
0
0
0
0
0
0
0
0
0
0
0
0
0
0
0
0
0
0
0
0
0
0
0
0
0
0
0
0
0
0
0
0
0
0
0
0
0
0
0
0
0
0
0
0
0
0
0
0
0
0
0
0
0
0
0
0
0
0
0
0
0
0
0
0
0
0
0
0
0
7.020164490047414076740735e-29
1.152755814520802467054644e-26
1.061688747225512257234574e-24
5.498427854254802908118847e-23
1.644849815855495332831985e-21
3.228405264449811609457661e-20
5.135312907332939663753154e-19
7.692483046906913105181269e-18
1.048874609225145670614171e-16
1.072396490950865791175517e-15
9.430176484004483936699412e-15
1.026765100139952456707989e-13
6.035220378758650360797531e-13
1.614362642367234674549824e-11
2.52311476572154221966832e-09
2.253230674081450973102823e-09
1.87717821720939769388793e-09
1.522865161051516836596008e-09
1.222098174029844719435272e-09
9.754651611351814077327241e-10
7.736750607626185216850937e-10
6.055543811518577017610413e-10
4.655749034043654016431154e-10
3.545152026914054195156442e-10
2.759816003116555526773454e-10
2.26033569446601875209966e-10
1.868456169072234252884684e-10
1.356931347061234909420702e-10
6.414348948429376500519115e-11
2.913958490579423067609341e-11
3.415474309645015531000697e-11
2.466019375905509485340686e-10
3.279735934970915373455712e-09
2.548759272892797230908662e-08
3.676397117468017509350975e-08
1.514754344453909779046334e-08
1.887027214332643035897171e-09
2.885954102044407810782758e-10
2.939854806376554904524537e-11
1.293470268632491172832819e-12
1.839479835677202391603915e-14
2.999896300799158000608712e-17
1.06333872458250396449249e-20
4.978465495066671737458975e-25
8.088540080156073713291974e-30
8.004614746808694856552359e-35
1.339617926495912518603531e-39
2.189775448130591557090321e-44
1.535462917118090345718061e-49
2.121461071061875228870651e-54
2.858143813470864264428962e-59
2.051271771474190234092559e-64
2.518944957617312737110417e-69
2.802628543561323802167321e-74
2.069106660183710382439719e-79
2.171463151758355279821003e-84
2.022086082633569401810944e-89
1.350297642199159971171206e-94
1.143688008892598136049465e-99
9.525004986717168217497661e-105
6.868840055885522692477485e-110
5.725877365466759572165581e-115
4.919206807938758188035341e-120
3.863315007107593096046785e-125
3.168633109758332490686303e-130
2.546373874367239471482913e-135
1.847439536732644214405156e-140
1.362368768245413642401311e-145
5.105407264715037678499724e-149
2.112375599722930027922705e-149
1.009907637695118154914856e-149
4.991617863576510612996038e-150
2.472295545033260246046531e-150
1.231517582090725996136716e-150
6.197871012471101516032412e-151
2.381753561025476346599945e-151
9.557391176279826555352468e-152
3.89284411425346581095441e-152
1.568479219943945435712285e-152
6.139379475884737606878093e-153
2.309375195806823639641982e-153
8.299696247137365859987326e-154
2.842084778472666459147667e-154
9.264048114546216831846463e-155
2.874543338926173842254885e-155
8.49558595240970370809473e-156
2.393589707002203845279447e-156
6.43533654299902543441039e-157
1.652765467321043981454543e-157
4.059018446727679744545097e-158
9.54196999382194116951104e-159
2.149211434823719923658798e-159
4.642345571776121645543367e-160
9.62457001492416908771606e-161
1.916700578215351055893572e-161
3.669236392259618523089682e-162
6.756813634407469948334554e-163
1.197643347385954138958841e-163
2.044496020819878172813027e-164
3.363200320829524888598398e-165
5.333879723395504446541325e-166
8.159375997803502143669982e-167
1.20441759839907297112519e-167
1.716215079904471630150503e-168
2.361536232735313284157685e-169
3.138962465686331353850619e-170
4.03156631593799938794394e-171
5.004643060688260447965858e-172
6.006035685157146575373601e-173
6.96965130293214015101326e-174
7.822125741408777407455171e-175
8.491828471025714114583692e-176
8.918720720891639083675394e-177
9.063200524363623726733711e-178
8.912135545859008300487541e-179
8.480815785862635912058754e-180
7.810427184662333233299718e-181
6.961618931996472281381846e-182
6.005545319083726792576479e-183
5.014196766845511949527481e-184
4.05180551779962088684469e-185
3.168672054930086381160139e-186
2.398072304820715929069966e-187
1.756183491771974573485202e-188
1.244394254545452402436013e-189
8.530526462323179208909904e-191
5.656709714627852384520615e-192
3.627886900842072410233643e-193
2.249923813859296367858035e-194
1.349022435302476957012446e-195
7.818279973716600157897904e-197
4.378621046967197852745247e-198
2.369085005598455781370255e-199
1.237979149906586388188798e-200
6.245920011959953663580785e-202
3.041438996882804956201371e-203
1.428888081818303802900052e-204
6.474071216516048816203738e-206
2.827657574406515020883664e-207
1.189985102065109202901612e-208
4.822822668927969359917972e-210
1.881348226907326764809306e-211
7.059768674718912016019942e-213
2.546779147001333440593234e-214
8.826269415038810332179803e-216
2.936509714270866152822246e-217
9.371588614176118419302645e-219
2.866522622575787071562851e-220
8.395800113507224854460328e-222
2.352372457048738193168617e-223
6.298330721686020909163521e-225
1.609607802422596188143073e-226
3.921455706942824243482611e-228
9.095305585386189193353056e-230
2.005335892610595629331705e-231
4.196181743431243633713838e-233
8.318571961440705338454559e-235
1.559278797398218851217805e-236
2.757683909634595584782521e-238
4.590655243215286825603684e-240
7.173981948658309264612377e-242
1.049323041022394999154139e-243
1.431747101523816030377942e-245
1.815439561266307026082431e-247
2.1299574478211143444628e-249
2.300709456185465533886894e-251
2.274710743325162619611669e-253
2.044497651024274416550816e-255
1.656866563800756688919359e-257
1.198704843890029829967602e-259
7.647392566420025194281856e-262
4.235439712069995727897032e-264
1.995074437249228851983533e-266
7.771525120252007871207013e-269
2.403564645081395564730104e-271
5.533789379727250056821159e-274
8.431340502340313838494501e-277
6.376468994386969128770462e-280
0
0
0
0
0
0
0
0
0
0
0
0
0
0
0
0
0
0
0
0
0
0
0
0
0
0
0
0
0
0
0
0
0
0
0
0
0
0
0
0
0
0
0
0
0
0
0
0
0
0
0
0
0
0
0
0
0
0
0
0
0
0
0
0
0
0
0
0
0
0
0
0
0
0
0
0
0
0
0
0
0
0
0
0
0
0
0
0
0
0
0
0
0
0
0
0
0
0
0
0
0
0
0
0
0
0
0
0
0
0
0
0
0
0
0
0
0
0
0
0
0
0
0
0
0
0
0
0
0
0
0
0
0
0
0
0
0
0
0
0
0
0
0
0
0
0
0
0
0
0
0
0
0
0
0
0
0
0
0
0
0
0
0
0
0
0
0
0
0
0
0
0
0
0
0
0
0
0
0
0
0
0
0
0
0
0
0
0
0
0
0
0
0
0
0
0
0
0
0
0
0
0
0
0
0
0
0
0
0
0
0
0
0
0
0
0
0
0
0
0
0
0
1.50590369082872836170424e-27
1.960093720935460608462703e-25
1.324289452407119170317024e-23
5.49221841685936041179487e-22
1.455767629285939377551194e-20
2.799099677381969067979919e-19
4.621596629566456586173956e-18
7.085347235447120989851291e-17
9.785821427340637343195698e-16
1.030749990812218245709184e-14
1.033448659351150033770123e-13
6.633888901367082054349494e-13
1.043903524251076045276102e-12
6.779165175807728098324656e-11
6.540478768269766709709992e-08
6.131405313780559940379594e-08
5.259998216333423215059178e-08
4.343907517951289372902082e-08
3.543161411916345899088691e-08
2.858028426544373395425217e-08
2.253457656487122788762282e-08
1.765626228041900897327951e-08
1.465011313218759624837777e-08
1.29998883273640194842094e-08
1.134020201502620484152562e-08
8.370147511761382228099431e-09
4.55094237488291913466888e-09
1.87375453524598625219684e-09
8.872320579807831802378018e-10
8.422573998018582350002851e-10
2.567269646796449282998796e-09
4.47737365004008763636529e-08
2.49607057973841814322853e-07
2.322166678798652715911432e-07