/*--------------------------------*- C++ -*----------------------------------*\
| =========                 |                                                 |
| \\      /  F ield         | OpenFOAM: The Open Source CFD Toolbox           |
|  \\    /   O peration     | Version:  v2012                                 |
|   \\  /    A nd           | Website:  www.openfoam.com                      |
|    \\/     M anipulation  |                                                 |
\*---------------------------------------------------------------------------*/
FoamFile
{
    version     2.0;
    format      ascii;
    class       volScalarField;
    location    "2";
    object      alpha.water;
}
// * * * * * * * * * * * * * * * * * * * * * * * * * * * * * * * * * * * * * //

dimensions      [0 0 0 0 0 0 0];


internalField   nonuniform List<scalar> 
96000
(
0
0
0
0
0
0
0
0
0
0
0
0
0
0
0
0
0
0
0
0
0
0
0
0
0
0
0
0
0
0
0
0
0
0
0
0
0
0
0
0
0
0
0
0
0
0
0
0
0
0
0
0
0
0
0
0
0
0
0
0
0
0
0
0
0
0
0
0
0
0
0
0
0
0
0
0
0
0
0
0
0
0
0
0
0
0
0
0
0
0
0
0
0
0
0
0
0
0
0
0
0
0
0
0
0
0
0
0
0
0
0
0
0
0
0
0
0
0
0
0
0
0
0
0
0
0
0
0
0
0
0
0
0
0
0
0
0
0
0
0
0
0
0
0
0
0
0
0
0
0
0
0
0
0
0
0
0
0
0
0
0
0
0
0
0
0
0
0
0
0
0
0
0
0
0
0
0
0
0
0
0
0
0
0
0
0
0
0
0
0
0
0
0
0
0
0
0
0
0
0
0
0
0
0
0
0
0
0
0
0
0
0
0
0
0
0
0
0
0
0
0
0
0
0
0
0
0
0
0
0
0
0
0
0
0
0
0
0
0
0
0
0
0
0
0
0
0
0
0
0
0
0
0
0
0
0
0
0
0
0
0
0
0
0
0
0
0
0
0
0
0
0
0
0
0
0
0
0
0
0
0
0
0
0
0
0
0
0
0
0
0
0
0
0
0
0
0
0
0
0
0
0
0
0
0
0
0
0
0
0
0
0
0
0
0
0
0
0
0
0
0
0
0
0
0
0
0
0
0
0
0
0
0
0
0
0
0
0
0
0
0
0
0
0
0
0
0
0
0
0
0
0
0
0
0
0
0
0
0
0
0
0
0
0
0
0
0
0
0
0
0
0
0
0
0
0
0
0
0
0
0
0
0
0
0
0
0
0
0
0
0
0
0
0
0
0
0
0
0
0
0
0
0
0
0
0
0
0
0
0
0
0
0
0
0
0
0
0
0
0
0
0
0
0
0
0
0
0
0
0
0
0
0
0
0
0
0
0
0
0
0
0
0
0
0
0
0
0
0
0
0
0
0
0
0
0
0
0
0
0
0
0
0
0
0
0
0
0
0
0
0
0
0
0
0
0
0
0
0
0
0
0
0
0
0
0
0
0
0
0
0
0
0
0
0
0
0
0
0
0
0
0
0
0
0
0
0
0
0
0
0
0
0
0
0
0
0
0
0
0
0
0
0
0
0
0
0
0
0
0
0
0
0
0
0
0
0
0
0
0
0
0
0
0
0
0
0
0
0
0
0
0
0
0
0
0
0
0
0
0
0
0
0
0
0
0
0
0
0
0
0
0
0
0
0
0
0
0
0
0
0
0
0
0
0
0
0
0
0
0
0
0
0
0
0
0
0
0
0
0
0
0
0
0
0
0
0
0
0
0
0
0
0
0
0
0
0
0
0
0
0
0
0
0
0
0
0
0
0
0
0
0
0
0
0
0
0
0
0
0
0
0
0
0
0
0
0
0
0
0
0
0
0
0
0
0
0
0
0
0
0
0
0
0
0
0
0
0
0
0
0
0
0
0
0
0
0
0
0
0
0
0
0
0
0
0
0
0
0
0
0
0
0
0
0
0
0
0
0
0
0
0
0
0
0
0
0
0
0
0
0
0
0
0
0
0
0
0
0
0
0
0
0
0
0
0
0
0
0
0
0
0
0
0
0
0
0
0
0
0
0
0
0
0
0
0
0
0
0
0
0
0
0
0
0
0
0
0
0
0
0
0
0
0
0
0
0
0
0
0
0
0
0
0
0
0
0
0
0
0
0
0
0
0
0
0
0
0
0
0
0
0
0
0
0
0
0
0
0
0
0
0
0
0
0
0
0
0
0
0
0
0
0
0
0
0
0
0
0
0
0
0
0
0
0
0
0
0
0
0
0
0
0
0
0
0
0
0
0
0
0
0
0
0
0
0
0
0
0
0
0
0
0
0
0
0
0
0
0
0
0
0
0
0
0
0
0
0
0
0
0
0
0
0
0
0
0
0
0
0
0
0
0
0
0
0
0
0
0
0
0
0
0
0
0
0
0
0
0
0
0
0
0
0
0
0
0
0
0
0
0
0
0
0
0
0
0
0
0
0
0
0
0
0
0
0
0
0
0
0
0
0
0
0
0
0
0
0
0
0
0
0
0
0
0
0
0
0
0
0
0
0
0
0
0
0
0
0
0
0
0
0
0
0
0
0
0
0
0
0
0
0
0
0
0
0
0
0
0
0
0
0
0
0
0
0
0
0
0
0
0
0
0
0
0
0
0
0
0
0
0
0
0
0
0
0
0
0
0
0
0
0
0
0
0
0
0
0
0
0
0
0
0
0
0
0
0
0
0
0
0
0
0
0
0
0
0
0
0
0
0
0
0
0
0
0
0
0
0
0
0
0
0
0
0
0
0
0
0
0
0
0
0
0
0
0
0
0
0
0
0
0
0
0
0
0
0
0
0
0
0
0
0
0
0
0
0
0
0
0
0
0
0
0
0
0
0
0
0
0
0
0
0
0
0
0
0
0
0
0
0
0
0
0
0
0
0
0
0
0
0
0
0
0
0
0
0
0
0
0
0
0
0
0
0
0
0
0
0
0
0
0
0
0
0
0
0
0
0
0
0
0
0
0
0
0
0
0
0
0
0
0
0
0
0
0
0
0
0
0
0
0
0
0
0
0
0
0
0
0
0
0
0
0
0
0
0
0
0
0
0
0
0
0
0
0
0
0
0
0
0
0
0
0
0
0
0
0
0
0
0
0
0
0
0
0
0
0
0
0
0
0
0
0
0
0
0
0
0
0
0
0
0
0
0
0
0
0
0
0
0
0
0
0
0
0
0
0
0
0
0
0
0
0
0
0
0
0
0
0
0
0
0
0
0
0
0
0
0
0
0
0
0
0
0
0
0
0
0
0
0
0
0
0
0
0
0
0
0
0
0
0
0
0
0
0
0
0
0
0
0
0
0
0
0
0
0
0
0
0
0
0
0
0
0
0
0
0
0
0
0
0
0
0
0
0
0
0
0
0
0
0
0
0
0
0
0
0
0
0
0
0
0
0
0
0
0
0
0
0
0
0
0
0
0
0
0
0
0
0
0
0
0
0
0
0
0
0
0
0
0
0
0
0
0
0
0
0
0
0
0
0
0
0
0
0
0
0
0
0
0
0
0
0
0
0
0
0
0
0
0
0
0
0
0
0
0
0
0
0
0
0
0
0
0
0
0
0
0
0
0
0
0
0
0
0
0
0
0
0
0
0
0
0
0
0
0
0
0
0
0
0
0
0
0
0
0
0
0
0
0
0
0
0
0
0
0
0
0
0
0
0
0
0
0
0
0
0
0
0
0
0
0
0
0
0
0
0
0
0
0
0
0
0
0
0
0
0
0
0
0
0
0
0
0
0
0
0
0
0
0
0
0
0
0
0
0
0
0
0
0
0
0
0
0
0
0
0
0
0
0
0
0
0
0
0
0
0
0
0
0
0
0
0
0
0
0
0
0
0
0
0
0
0
0
0
0
0
0
0
0
0
0
0
0
0
0
0
0
0
0
0
0
0
0
0
0
0
0
0
0
0
0
0
0
0
0
0
0
0
0
0
0
0
0
0
0
0
0
0
0
0
0
0
0
0
0
0
0
0
0
0
0
0
0
0
0
0
0
0
0
0
0
0
0
0
0
0
0
0
0
0
0
0
0
0
0
0
0
0
0
0
0
0
0
0
0
0
0
0
0
0
0
0
0
0
0
0
0
0
0
0
0
0
0
0
0
0
0
0
0
0
0
0
0
0
0
0
0
0
0
0
0
0
0
0
0
0
0
0
0
0
0
0
0
0
0
0
0
0
0
0
0
0
0
0
0
0
0
0
0
0
0
0
0
0
0
0
0
0
0
0
0
0
0
0
0
0
0
0
0
0
0
0
0
0
0
0
0
0
0
0
0
0
0
0
0
0
0
0
0
0
0
0
0
0
0
0
0
0
0
0
0
0
0
0
0
0
0
0
0
0
0
0
0
0
0
0
0
0
0
0
0
0
0
0
0
0
0
0
0
0
0
0
0
0
0
0
0
0
0
0
0
0
0
0
0
0
0
0
0
0
0
0
0
0
0
0
0
0
0
0
0
0
0
0
0
0
0
0
0
0
0
0
0
0
0
0
0
0
0
0
0
0
0
0
0
0
0
0
0
0
0
0
0
0
0
0
0
0
0
0
0
0
0
0
0
0
0
0
0
0
0
0
0
0
0
0
0
0
0
0
0
0
0
0
0
0
0
0
0
0
0
0
0
0
0
0
0
0
0
0
0
0
0
0
0
0
0
0
0
0
0
0
0
0
0
0
0
0
0
0
0
0
0
0
0
0
0
0
0
0
0
0
0
0
0
0
0
0
0
0
0
0
0
0
0
0
0
0
0
0
0
0
0
0
0
0
0
0
0
0
0
0
0
0
0
0
0
0
0
0
0
0
0
0
0
0
0
0
0
0
0
0
0
0
0
0
0
0
0
0
0
0
0
0
0
0
0
0
0
0
0
0
0
0
0
0
0
0
0
0
0
0
0
0
0
-6.143794412757381509805784e-55
-6.972829951780155557435549e-43
-3.067339123824712164658912e-41
-6.731725397186326546208703e-40
-9.827515628984393462913367e-39
-1.073663546905346906986206e-37
-9.363324811356470824480286e-37
-6.789839518385746549701918e-36
-4.211066400877984375257998e-35
-2.280256313327769664118046e-34
-1.095152280759931447424795e-33
-4.723461368325072802637486e-33
-1.848019826215097730066489e-32
-2.101052735837767055755578e-32
-2.383814151908011951599611e-32
-2.698936265030853409749234e-32
-3.049135754939730170614409e-32
-3.437188069448780807218835e-32
-3.865895669718520774683985e-32
-4.338049764905788794186527e-32
-4.856385138901967295994436e-32
-5.423527782622759819578203e-32
-6.041935190521529339798399e-32
-6.713829362388046830264488e-32
-7.441122772852102361176722e-32
-8.225337831887021354200108e-32
-9.067520658931617846068364e-32
-9.968150327971152294632242e-32
-1.092704510564420755910453e-31
-1.194326759108620902709401e-31
-1.301503106377176547800631e-31
-1.413960973994452930933741e-31
-1.531325601197875941786311e-31
-1.653112807798401000203342e-31
-1.778723163809720532265728e-31
-1.907437951429331348453068e-31
-2.038417311603669618793205e-31
-2.170700959867506626564457e-31
-2.303211832067914791892547e-31
-2.434762977856033742843591e-31
-2.564067956876768951985045e-31
-2.689754908579075543997149e-31
-2.81038436163320146418801e-31
-2.924470724357531310181385e-31
-3.030507255934535491302923e-31
-3.126994163553890912319332e-31
-3.212469308465939823773764e-31
-3.285540841142778130044931e-31
-3.34492093045414696511362e-31
-3.389459613006494527055134e-31
-3.418177676108564654339136e-31
-3.430297410702822508362262e-31
-3.425270037836993150657753e-31
-3.402798631231508365984806e-31
-3.362855434489640850966941e-31
-3.305692606953511027558799e-31
-3.231845626190077521692087e-31
-3.142128822887803965651334e-31
-3.037622816911518892456691e-31
-2.919653948960343332235426e-31
-2.789766144944603822932281e-31
-2.649685991548810378152915e-31
-2.501282121754024122698187e-31
-2.346520288525193016190143e-31
-2.187415724962766574913656e-31
-2.025984534364902531643979e-31
-1.864195912467916457394283e-31
-1.703926970583021518044399e-31
-1.546921802449920089508882e-31
-1.394756225717174954301765e-31
-1.248809343396407611406665e-31
-1.110242728992370250121042e-31
-9.799876627696043166224174e-32
-1.205595662069914354291867e-31
-1.403316927368950852272624e-31
-1.551207455834803396887984e-31
-1.633481900672643415064831e-31
-1.643176550563653295651165e-31
-1.58281862679486587356209e-31
-1.463145521531898822750646e-31
-1.300426522513218388403972e-31
-1.113201720713914672177957e-31
-9.192363332633183871037381e-32
-7.332616958723210824763969e-32
-5.657552287908576757920606e-32
-4.227153929647665819879895e-32
-3.061880663672795566769e-32
-2.15220426070724444187644e-32
-1.469385355092878146419763e-32
-9.752547224091964300433228e-33
-6.297641080682580301894473e-33
-3.959491620862379279054889e-33
-2.42552601863193832485302e-33
-1.448644582642210396760393e-33
-8.440621340224454204335202e-34
-4.800597519722853907143681e-34
-2.666624521386546547617509e-34
-1.44743296573298173304389e-34
-7.680993642628533437250106e-35
-3.986759207931272099163671e-35
-2.024871078592823352056493e-35
-1.006772213633563572074035e-35
-4.902239343303988851822131e-36
-2.338579402802496538898248e-36
-1.093355466268433295103076e-36
-5.011556094123967430965692e-37
-2.252835628823366317457033e-37
-9.935042074761440258509772e-38
-4.299570314649529334889079e-38
-1.826509715196611657302426e-38
-7.618717537310240634999642e-39
-3.121197887898521730208145e-39
-1.256181428626757045488968e-39
-4.968015006657719968032019e-40
-1.931153122905436662538186e-40
-7.379956716612560796697871e-41
-2.773260190040284958261846e-41
-1.024991127394231861678484e-41
-3.726765099993042509529779e-42
-1.333254351738294582361496e-42
-4.694040020255295419310568e-43
-1.62672546307236492565594e-43
-5.550008894465071278853954e-44
-1.86449283698897783168186e-44
-6.168628769558665782173694e-45
-2.01024200782594476211625e-45
-6.453696397169155820815823e-46
-2.041435858911271497284514e-46
-6.363476712009446978997415e-47
-1.955002016004658405837619e-47
-5.920448593100841919836824e-48
-1.767565333217106268437398e-48
-5.203155899044478390315781e-49
-1.510372468256204128696067e-49
-4.323952022465515449129125e-50
-1.220982411831534780097704e-50
-3.401107162381557166580367e-51
-9.346795711136913304090395e-52
-2.534454208961789573349123e-52
-6.781593742089042802154909e-53
-1.790810914300566812081309e-53
-4.667475656973651225933273e-54
-1.200801490198878402238962e-54
-3.049709253373337505452037e-55
-7.646870932715664345484128e-56
-1.893154517135611116130992e-56
-4.628103719711713876380096e-57
-1.117304256377281234489011e-57
-2.663953959829970593842511e-58
-6.273405303231803722678971e-59
-1.459267073968918884422315e-59
-3.353153487908863303936001e-60
-7.611858306488698607042109e-61
-1.707170796659370758900216e-61
-3.783046564681935500442288e-62
-8.283488730972206957347939e-63
-1.792335282226415721704396e-63
-3.832534903954902099489557e-64
-8.099150216985105505814006e-65
-1.691624171649275213796292e-65
-3.492231890124683952579006e-66
-7.126228519476333951168676e-67
-1.437459609119727180945229e-67
-2.866365553006428213709364e-68
-5.650505815510562348593877e-69
-1.101239318639339838537735e-69
-2.12193715152760201980739e-70
-4.042560258216140148486472e-71
-7.614990257209505715619059e-72
-1.418357313433700831849881e-72
-2.61227473790151722222769e-73
-4.757526432428173867116041e-74
-8.568084807694850866913713e-75
-1.525935648490026843315343e-75
-2.687490621591364462038717e-76
-4.680830145228252743060656e-77
-8.062493168323708766354808e-78
-1.373378059129617004631037e-78
-2.313593497957258800106712e-79
-3.854430553599278396977255e-80
-6.35049443952010768756956e-81
-1.034724276527860681161203e-81
-1.667265049558917409738097e-82
-2.656671821159413768646565e-83
-4.186120076627595649681659e-84
-6.522434960932755256294777e-85
-1.00487498049242757743892e-85
-1.530713780785917007241695e-86
-2.30529272602450170044663e-87
-3.432202941677545911828774e-88
-5.051177182230325860377785e-89
-7.347425437043671112527956e-90
-1.056189227593272226540962e-90
-1.50017669724364850539779e-91
-2.105011351229942089818892e-92
-2.91728849895928998921829e-93
-3.99208439042515514847501e-94
-5.392304262628092077824756e-95
-7.18675676920931162697189e-96
-9.446429005410469824979056e-97
-1.223835001008582186784107e-97
-1.561636895016576183571442e-98
-1.960815567908644440824983e-99
-2.419777732497492447889214e-100
-2.930333747938276407944724e-101
-3.474940555135511374865874e-102
-4.023432939121711999432521e-103
-4.529302222966639145553887e-104
-4.925644033392471409736578e-105
-5.120969874124731677330481e-106
-4.995156728477955430507607e-107
-4.395888489391039398512593e-108
-3.13601436108144512260466e-109
-9.923025546365347432553881e-111
2.293908196586602034444719e-111
7.013672148819564608481392e-112
1.348459193840720362361674e-112
2.204186135235304505617343e-113
3.302606577491228585592082e-114
4.67678372825311103594891e-115
6.356972909659158569638027e-116
8.368596538731890832667897e-117
1.073010137252939420710825e-117
1.345081908235421149042103e-118
1.65289717584759642697564e-119
1.994997578800461612550745e-120
2.368519824309885568275424e-121
2.769130780424712683372699e-122
3.191033674881157444803325e-123
3.627053237091572748186778e-124
4.06880274388004366011791e-125
4.506930329304025454760546e-126
4.931436033636053628923998e-127
5.332045400973889417172398e-128
5.698620509904505982481625e-129
6.021585619486922072452949e-130
6.292342523853246410659917e-131
6.503650485194841045832239e-132
6.649947339159151462670731e-133
6.727591937100655577460378e-134
6.735013227483941592357289e-135
6.672757554555657728419655e-136
6.543432629867698232435552e-137
6.351553523416060867934502e-138
6.103302347244942764995927e-139
5.806218553803088472904117e-140
5.468840549419081974013916e-141
5.100321386751017287428739e-142
4.71004157411939441088368e-143
4.307240615684096852838199e-144
3.900686012161381874149837e-145
3.498394457259458389429239e-146
3.107415279200321627778268e-147
2.733681240813641810744375e-148
2.381927044215754016726866e-149
2.055671645276033351617522e-150
1.757257039256699466208851e-151
1.48793369984022610824688e-152
1.247981401376730207725208e-153
1.036853693972190053839666e-154
8.533347186841650069506745e-156
6.956981744572630977404769e-157
5.618598763835354998525874e-158
4.495172654605253867362101e-159
3.56271245139282353907738e-160
2.79727660215603098488942e-161
2.175774682946582121369811e-162
1.676560954250966349136988e-163
1.27983569992584333408447e-164
9.67877844659682557468755e-166
7.251366502519578791874894e-167
5.382117778125575655591063e-168
3.957502315784755264652879e-169
2.88286276722186693612751e-170
2.080469368960517039659554e-171
1.487416511920330120188223e-172
1.053505349128180337905217e-173
7.392176801534430259245408e-175
5.138514778835220393552736e-176
3.538591167600626218691453e-177
2.414060686771923136502466e-178
1.631504030705437492908695e-179
1.092313030478355376324215e-180
7.244719385451631001385067e-182
4.76000802319006415160865e-183
3.098141999719226483860477e-184
1.997551641332994913928046e-185
1.27583058913201025223182e-186
8.072001564461340388728329e-188
5.058914393425634702822721e-189
3.140621701700918283426895e-190
1.931301922918123416710583e-191
1.176399201067656440421506e-192
7.097783310208408486620287e-194
4.241772755843983316308343e-195
2.510854806491553086508616e-196
1.472102161141209788179949e-197
8.54847757003734954717336e-199
4.916614108209531665359839e-200
2.800668796459444121199354e-201
1.5800366004367446804775e-202
8.828227302678651617769073e-204
4.885080775981773784292315e-205
2.677025523788972030028931e-206
1.452801060759003557015793e-207
7.807693000332507876743423e-209
4.155201011549406991072292e-210
2.189795588014108417755137e-211
1.142737700920916529970768e-212
5.904863992662401667243784e-214
3.02121921231091018281953e-215
1.530565469127156096035353e-216
7.677272609686341076270558e-218
3.812721965050167497135447e-219
1.874665896530784261683741e-220
9.125576940656774926026225e-222
4.39775800977518758596628e-223
2.098086531213355237999365e-224
9.908838408544856637028228e-226
4.63249836543839667164972e-227
2.143811305708196790327813e-228
9.820234149533348048235285e-230
4.452521803577535036635124e-231
1.998130185611376075725151e-232
8.874814232655790131523177e-234
3.901183996815408742215721e-235
1.69714453162841636791391e-236
7.306504621493525061306574e-238
3.112804063740488901645773e-239
1.312283527009796952802495e-240
5.47418479472729224987071e-242
2.25948182351452354873126e-243
9.227354903595654598484916e-245
3.728254377228095410030692e-246
1.490302238992313704981179e-247
5.893371796836310144078078e-249
2.305439593484806601262063e-250
8.921202699629254359999495e-252
3.414693471213466809502328e-253
1.292757801858698200941494e-254
4.840584001236396206386376e-256
1.792549163278924670247219e-257
6.564689944000229984422588e-259
2.377408577956352916082051e-260
8.513655003383852830557602e-262
3.014578127584157818573232e-263
1.055383911260975383643676e-264
3.652939365948327760050994e-266
1.249961507470927749922301e-267
4.228112844878056554766715e-269
1.413726105598200845278966e-270
4.6722408340068844974243e-272
1.52615371715219448321389e-273
4.926695716359459234902151e-275
1.571695054077332354701188e-276
4.95457011255238379523965e-278
1.543256944394556487212401e-279
4.74934634156566776373114e-281
1.443979020419350435661742e-282
4.336973614186040508269625e-284
1.286702779258870592021812e-285
3.77051996458058406675498e-287
1.091241910333873011687313e-288
3.118904613423166016917593e-290
8.802541931231044944428892e-292
2.453024864528968678400229e-293
6.749097313927390908579443e-295
1.833160632773163131713242e-296
4.915036732458534296642166e-298
1.300720079286371053953215e-299
3.397271361843349516965191e-301
8.756357320930928865131342e-303
2.226999374617585026168901e-304
5.588247292077691156752821e-306
1.383389605818694146717044e-307
3.378159539191718894144978e-309
8.13644749645935655009958e-311
1.932678582417100612811739e-312
4.526937744160505775589289e-314
1.045521957103412286924688e-315
2.377443887788078370577649e-317
5.335908975085462677106943e-319
1.976262583364986176706275e-320
0
0
0
0
0
0
0
0
0
0
0
0
0
0
0
0
-1.580087758731288005566506e-40
-6.982485505436053404236511e-39
-1.53922248521923643543786e-37
-2.256779927577039920745403e-36
-2.47583235925216586232968e-35
-2.167811321956021375602308e-34
-1.578025643222072018560161e-33
-9.822653652326778229904224e-33
-5.337232671641902877883431e-32
-2.571644725719743094393963e-31
-1.112510289065608009864012e-30
-4.364715210092048388073432e-30
-1.565909310042920321453242e-29
-5.173191754070483628853327e-29
-5.72690397940379163553615e-29
-6.325154415911062717534339e-29
-6.969323253010185834827178e-29
-7.660482197528121628228165e-29
-8.399333647202800043099913e-29
-9.186147229176079827009418e-29
-1.002069471216713206138931e-28
-1.090218452573303997253058e-28
-1.182919734844847466523304e-28
-1.279962445139835380774264e-28
-1.381061069503792374420511e-28
-1.485850426581209458056931e-28
-1.593881539231094737088857e-28
-1.70461863866200386793159e-28
-1.817437540183574926601556e-28
-1.931625626837523169193988e-28
-2.046383665729591798661615e-28
-2.160829660730357257234633e-28
-2.274004913468068779866785e-28
-2.384882421635884662747056e-28
-2.49237768942248674718682e-28
-2.595361959690360248719739e-28
-2.6926778022890108824697e-28
-2.783156909160010328076153e-28
-2.865639856905773484664999e-28
-2.938997504173335647981691e-28
-3.002153598115824175356556e-28
-3.054108075467642925642729e-28
-3.09396046396482588872202e-28
-3.120932723763579717556797e-28
-3.13439082096872490779879e-28
-3.133864300926818251855961e-28
-3.119063131527010549654409e-28
-3.089891119461077673140286e-28
-3.046455267071460951438584e-28
-2.989070534427297571724416e-28
-2.918259599248234230402606e-28
-2.834747363031803178255746e-28
-2.739450130119368595185526e-28
-2.633459580566672927386558e-28
-2.518021859114239960415748e-28
-2.394512301658557175181981e-28
-2.264406507107441706463675e-28
-2.129248626009080569064329e-28
-1.990617868129168967388341e-28
-1.850094320784589780476801e-28
-1.709225211763125788822001e-28
-1.569492741140877494683903e-28
-1.432284544275463304432285e-28
-1.298867735896311491569884e-28
-1.170367327878589710423106e-28
-1.047749619218906148658432e-28
-9.318109365765804734933053e-29
-8.231718698550676546945081e-29
-7.222769128782322924879791e-29
-6.293991973859521347015305e-29
-5.446498114318785557392466e-29
-4.679910310324539150811843e-29
-3.99252674229295043476507e-29
-3.38150714164118698780789e-29
-3.719516581048891208750613e-29
-3.895628896869922622595832e-29
-3.895972705391293477247139e-29
-3.729825953066423535547829e-29
-3.42579968637347837510342e-29
-3.024830995535564733756316e-29
-2.57208301797458809872689e-29
-2.10969097892721679556011e-29
-1.671646157004034361983674e-29
-1.281291057956155179492297e-29
-9.511893022155986876480876e-30
-6.846945446654667427458063e-30
-4.784038096603327374197363e-30
-3.24775699422638537967923e-30
-2.144156757537927656693106e-30
-1.377778261578533225143465e-30
-8.623685466871386633514631e-31
-5.261576097343046790606113e-31
-3.131456118942497025759501e-31
-1.819130325757109655987441e-31
-1.03212110908689104195887e-31
-5.72260106768983291052305e-32
-3.102303810590173301271027e-32
-1.6452120662163958467226e-32
-8.539105744632627455792042e-33
-4.339608666837791457281394e-33
-2.160331736169999530567282e-33
-1.053892017185798270879153e-33
-5.04013784365046946532242e-34
-2.363826328288941454564028e-34
-1.087586379253806939667722e-34
-4.910522431784540389069602e-35
-2.17641193147220696547022e-35
-9.47177012447494249300438e-36
-4.048731319866593869265702e-36
-1.700278016316811895948252e-36
-7.016882473432285411966043e-37
-2.846406276320920815842925e-37
-1.135215991254143396295177e-37
-4.452308031914382524849603e-38
-1.717548878749541523758627e-38
-6.518362618107482671199934e-39
-2.434210844679298675607979e-39
-8.946425673030545777374187e-40
-3.236614039144194321569664e-40
-1.152809720436824995436236e-40
-4.043173002900118134682158e-41
-1.396545302959004215584938e-41
-4.751419056342717320956321e-42
-1.592548044431119659992922e-42
-5.25927383993784831883902e-43
-1.711528530699985913231687e-43
-5.489423870892482895943518e-44
-1.735445439957703874809322e-44
-5.408692651968234936968709e-45
-1.661975780071242706091089e-45
-5.035707002614342613600057e-46
-1.504701696522080967677487e-46
-4.434492657647506329252769e-47
-1.289107211889074199966304e-47
-3.696854648543695859189942e-48
-1.045970292101835863990435e-48
-2.920075843432604359258957e-49
-8.044512080411375108749228e-50
-2.187146748345375688681166e-50
-5.869073030443158778516152e-51
-1.554583814765885857653615e-51
-4.064905259331290037911167e-52
-1.04933939310501521509878e-52
-2.674529574015617781494161e-53
-6.731011933230198969238821e-54
-1.672821301429747742317298e-54
-4.105714562856465160660102e-55
-9.952469180776594679290692e-56
-2.38291084784487557506194e-56
-5.635736929566231369288314e-57
-1.316709077869733374481882e-57
-3.039166711556642336381135e-58
-6.930639734394681605424924e-59
-1.561614814305918781306667e-59
-3.476827676468179891608978e-60
-7.649394931381603259547119e-61
-1.663147876498060532638712e-61
-3.573706437106284392064223e-62
-7.589525790754813476670229e-63
-1.593092016693346769904729e-63
-3.305364732603204559565019e-64
-6.779087326786912193600149e-65
-1.374410686954864131201571e-65
-2.754701488631891858342819e-66
-5.458378764843832230719264e-67
-1.069304434615293290774653e-67
-2.071114827482846404802973e-68
-3.966319315468708512139665e-69
-7.510458382623893483908746e-70
-1.406222497971306059049661e-70
-2.603532215878018366935876e-71
-4.766554417111169667449659e-72
-8.629567628647953588083647e-73
-1.544988883850022919238198e-73
-2.735402084801929125224274e-74
-4.789417965267384324926586e-75
-8.293060357293917619990409e-76
-1.420105500373866540927332e-76
-2.404925015565879793536002e-77
-4.027700782256741686987557e-78
-6.67091080406056046205484e-79
-1.092648961330251779825304e-79
-1.769850674532700929755037e-80
-2.834935436212242446430962e-81
-4.49042449969570405374516e-82
-7.033200654098606036779307e-83
-1.089230703964340290419886e-83
-1.667875135812297200681857e-84
-2.52496037009116863671026e-85
-3.778834395005900245381027e-86
-5.590256319319111449142856e-87
-8.173852297819258434483295e-88
-1.181094585967996452404794e-88
-1.686305892493596023375245e-89
-2.378482903393386106970383e-90
-3.31343569837819771671475e-91
-4.557807716900749190815016e-92
-6.188614066121573435048281e-93
-8.291305802516778496043322e-94
-1.095570434736485600416328e-94
-1.426902597391469268632011e-95
-1.830511618810760515178716e-96
-2.310896083928402574305133e-97
-2.867556243230461378002789e-98
-3.492239657171087260009463e-99
-4.165492478472650707877622e-100
-4.852506196344434156336553e-101
-5.498309589871389772625507e-102
-6.022433447326583071600095e-103
-6.313269402949920193614878e-104
-6.222449570896256107244292e-105
-5.559683208847978411400404e-106
-4.088590237746499692643801e-107
-1.524156384305056191126184e-108
2.467513395436754734602171e-109
8.266462530774305034739663e-110
1.629254821178303174385217e-110
2.69950103925634747642265e-111
4.083765618390779998283835e-112
5.827965185839316641098951e-113
7.9752258939033414499181e-114
1.056322388789926687505681e-114
1.362130538624423555389653e-115
1.716753732642090594026642e-116
2.120587159059968301539556e-117
2.572362765102021616618394e-118
3.068950637790739180144887e-119
3.605233892375398561417144e-120
4.174074755281534594833717e-121
4.766385020533147694424879e-122
5.371307950296857737666278e-123
5.976511368173202974600074e-124
6.568583704577581375980372e-125
7.133516758891959867094264e-126
7.657251658049651116942925e-127
8.126258611255939818934269e-128
8.528117185604327171397947e-129
8.852062393404498274525983e-130
9.089463107294840505544624e-131
9.234203174059125835182346e-132
9.28294180119156229223474e-133
9.235237834188013571597016e-134
9.09353174380917549265716e-135
8.862988712506214117473604e-136
8.551215335216887743887045e-137
8.167870378558972946894884e-138
7.724196154299829029749233e-139
7.232500929241969983282125e-140
6.705624211000457125348906e-141
6.156415747785372787502038e-142
5.597255906706275593466557e-143
5.039640172546803595767209e-144
4.493844382435525810954795e-145
3.968680584361414652624141e-146
3.471346676451775337544956e-147
3.007366783863878280887233e-148
2.580614088624000630913073e-149
2.19340383700791526845703e-150
1.846641655461236886249081e-151
1.540011115536162843807741e-152
1.272184585796374043358516e-153
1.04104258661089310587546e-154
8.438888561628461319084921e-156
6.776508523469113093166098e-157
5.390581716312056392894137e-158
4.247941099409763543169467e-159
3.316181184161955750667515e-160
2.564590725512045043749951e-161
1.964809902921685032393774e-162
1.491240716822129649865844e-163
1.121247041908547636837232e-164
8.351843312542732904153526e-166
6.162990702922317717244435e-167
4.505355604295564634575482e-168
3.262833009607729749322992e-169
2.340929016239457941054847e-170
1.663827470991138527545131e-171
1.171530571620739117439261e-172
8.171890205982608328724907e-174
5.646936335255325141743765e-175
3.865647864884725135594739e-176
2.621488361848612850786024e-177
1.761110886502006219300133e-178
1.172020322989879242056865e-179
7.72661872157278527445359e-181
5.045981204007566889068157e-182
3.264368489906186552083702e-183
2.09192165223088265052359e-184
1.32794266871852927029967e-185
8.35017527418068066543279e-187
5.201020898759940073525132e-188
3.208872334945018127150022e-189
1.961014984573399874178907e-190
1.187045946180986748927066e-191
7.117140073113162917229644e-193
4.22656742863821122319842e-194
2.486033907989924929271431e-195
1.448290295144660744640414e-196
8.356522876848382933858173e-198
4.775389606999900985890857e-199
2.702693226333268504413299e-200
1.514888527360442956775168e-201
8.409139134130079016744576e-203
4.622745808769322143088858e-204
2.516613342163704134929807e-205
1.356722695303627439145262e-206
7.242918893951759480547981e-208
3.828896502764989748972206e-209
2.004289051755693585171945e-210
1.038873723034023022587864e-211
5.331746793625893407756031e-213
2.709374211175686373925524e-214
1.363167640610892739511052e-215
6.790443219913072227277035e-217
3.348906583648261575986661e-218
1.635125819263505487174489e-219
7.903681284829131941833529e-221
3.782024339064577130867254e-222
1.791521900741011695297627e-223
8.400569959261515080151667e-225
3.899148893651516796934099e-226
1.791391886008590441896538e-227
8.146218500348962721003242e-229
3.666492439250764586187509e-230
1.633274194151399627095175e-231
7.200537412153264268591732e-233
3.141606708417847023203932e-234
1.356447685847193217061267e-235
5.795641155552469642402595e-237
2.450358585727932533187381e-238
1.025108083081475696933202e-239
4.243295675538863939534583e-241
1.737848585546769973361352e-242
7.041684596851032143870889e-244
2.822784930779588194738541e-245
1.11942702867568507360721e-246
4.391474260303643356796262e-248
1.704122483869445699613518e-249
6.54102958682800833632903e-251
2.483274658893322603108142e-252
9.324268801264826222516718e-254
3.462531980999441286653894e-255
1.271566020364173719733302e-256
4.617711599025074562094428e-258
1.658187525922668334226778e-259
5.887556817987470131635552e-261
2.06683775505046835469857e-262
7.173351812425742976616642e-264
2.461254262344688403107363e-265
8.348011392850026657834744e-267
2.798819113912860788760415e-268
9.274795772931712131401107e-270
3.037690392870865106539803e-271
9.832491910015476286165997e-273
3.145106303046102058657198e-274
9.940970456428628704410498e-276
3.104655414833963172211913e-277
9.579834047778588365644902e-279
2.920321375185131051595785e-280
8.794250319098008951888691e-282
2.615948814352289751240785e-283
7.685779269936810583163079e-285
2.230180839783776640949527e-286
6.390726854242513353602106e-288
1.808348559451280798664822e-289
5.052410740809452480123677e-291
1.393676073962895911689048e-292
3.795184969060192437940437e-294
1.020169414642099779764316e-295
2.706695088957964550879383e-297
7.087491640449625674445135e-299
1.831426601376997223225228e-300
4.669676190823857506372695e-302
1.174734820763223274787589e-303
2.915434116636972500747464e-305
7.137240607556997972552802e-307
1.723349825381638906580272e-308
4.103776321001752689050467e-310
9.636314952673269369459937e-312
2.231022790612824881244099e-313
5.092216035930726231657292e-315
1.145837045835018985254298e-316
2.529616106707182306184032e-318
5.928787750094958530118826e-320
0
0
0
0
0
0
0
0
0
0
0
0
0
0
0
-2.084604583660607104577146e-42
-3.591875746146164190992988e-39
-1.563371445350765538929521e-37
-3.423367241947241748663712e-36
-4.996288244551914425731845e-35
-5.46046618872132645678286e-34
-4.764703498859220715229467e-33
-3.457076676542992636605598e-32
-2.145053976441493222556747e-31
-1.161852503710569142523591e-30
-5.580439694680263989448149e-30
-2.406423935351929961168323e-29
-9.41058254565117703857034e-29
-3.365092797937312403527839e-28
-1.107982318819002854615829e-27
-1.241549538055857082294106e-27
-1.387672627550965877411474e-27
-1.546969323475731964538539e-27