# geometry NO_DATA 924
#  x  y  z
1.444026694707302604925303 0.01412744478807656522967307 0.6701007500807740768777876
1.438053389414605476304132 -0.0166666666666666664353702 0.6760904171013411012580718
1.444026694707302826969908 -0.01920588854525676417162039 0.6701007500807740768777876
1.42398071913444757008449 -0.01147867389364886150926459 0.6880533894146055873264345
1.415881354146987236575228 -0.03286539664158762141799031 0.694026694707302826969908
1.415881354146987236575228 0.009908048854289903603631551 0.694026694707302826969908
1.432109898834987848914579 -0.03805338941460542634409592 0.6701469265217234738685192
1.418037228554830164739542 -0.03805338941460543328298982 0.6821098988349879599368819
1.418037228554830164739542 0.03805338941460544022188373 0.6821098988349879599368819
1.432109898834987626869975 0.03805338941460543328298982 0.6701469265217234738685192
1.492703631956654675150276 0.006212788221911787894802259 0.6635091562652573049518878
1.485407263913308684166736 -0.01666666666666666990481716 0.6708100260676103099299894
1.492703631956654675150276 -0.02712054511142155191483205 0.6635091562652573049518878
1.47479739914722074445308 -0.004553062865509641468642066 0.6793504620127304161059101
1.471483902424478351633752 0.002073930579975615581117543 0.6805900281554975173037292
1.478194114432193728703169 -0.0354072639133089644980501 0.6635968765864953544664218
1.465427100523899683892637 -0.02329366011215193432715154 0.6746838577428114769318768
1.461527447765527343293002 -0.0354072639133089575591562 0.6662311421189295312927925
1.467584249666105566944907 0.02329366011215191351046983 0.6721373125316154606423424
1.458213951042784728429069 0.03788639619884295872687119 0.6674707082616964104460067
1.478194114432193950747774 0.0354072639133089575591562 0.6635968765864952434441193
1.456056801900578401287589 0.01396045157231409761244834 0.6700172534728926487801459
1.462113603801157069028704 -0.007259277959862206822116981 0.6759234238855784671073934
1.456056801900578623332194 -0.02847900749203849737889449 0.6700172534728926487801459
1.542467189160803275882472 0.005087800129353042127844375 0.6626206109685495171390812
1.534934378321606951445233 -0.01666666666666667684371106 0.6700110892254800276646165
1.542467189160803275882472 -0.02824553320398028727344908 0.6626206109685496281613837
1.525695278195101423079905 -0.001811533586344595209496888 0.6775068117814458945602496
1.523988988907792219151816 0.001601044988273605130385535 0.6776120560804812509303474
1.527633193807385492135609 -0.03493437832160696532302069 0.6627099047112584573326899
1.516561422367631140062372 -0.02007924524128488347196608 0.6704423847749438891696627
1.510966527140718662636232 -0.03493437832160697226191459 0.6630359559616869624676383
1.518394093680879741725676 0.02007924524128485224694352 0.670205627267224324228323
1.509260237853409458708143 0.03514486691967790010782124 0.6631412002607222078154336
1.527633193807385270091004 0.03493437832160695144523288 0.6627099047112583463103874
1.507427566540160857044839 0.00595039122828072870874383 0.6633779577684417727567734
1.514855133080321936134283 -0.0125278090247305205762185 0.6705476290739792455397605
1.507427566540160857044839 -0.03100600927774175424866954 0.6633779577684417727567734
1.592719315785459999190721 0.006944786909805225616487689 0.6642254711243453790814328
1.5854386315709199095636 -0.01666666666666666990481716 0.6711917092403625328955741
1.592719315785459999190721 -0.02638854642352810725425272 0.6642254711243453790814328
1.576365480669797758395134 -0.001479635135577484980617946 0.6778451158053752090282273
1.57457301398321569685379 0.002105298237586526212405946 0.6775322842543707313467394
1.578515130358820073297466 -0.03543863157091986515467852 0.6642682080282625856071377
1.566979498217671018522879 -0.02025160003983067849575583 0.6702025109237884636925742
1.561848463692153465842694 -0.03543863157091986515467852 0.6635918412626928830633233
1.569441979457697922129 0.02025160003983067502630888 0.6709216145932752617397909
1.560055997005571182256745 0.03481296846891081264718792 0.6632790097116882943595328
1.578515130358820073297466 0.03543863157091986515467852 0.6642682080282626966294401
1.557593515765544722739833 0.004966390276656899860352468 0.6625599060422013852900136
1.565187031531089179026139 -0.01317991152558724635146525 0.6698896793727838749887837
1.557593515765544722739833 -0.03132621332783139256328298 0.6625599060422016073346185
1.644224119110040627234071 0.01671061014681285428196134 0.6724864910367720494122068
1.638448238220080899196773 -0.01666666666666666296592325 0.6775794241834468545349068
1.644224119110040405189466 -0.01662272318652047511933212 0.6724864910367720494122068
1.629063128614742783639713 -0.002103552544009693915649795 0.6811666811587526737525877
1.625453899899364174075345 0.005114904886747876494590415 0.6796610049873836878475686
1.63326383137118757993278 -0.03844823822008121283477777 0.6723950173345532022040061
1.618172342838035682177633 -0.02388512409742424638658953 0.6726956397181549363040176
1.616597164704520750433403 -0.03844823822008121977367168 0.6690169090406300478335311
1.623878721765849242331115 0.02388512409742423597824867 0.6759822743098587993770821
1.61298793598914191882443 0.03543688587734301898013456 0.6675112328692610619285119
1.63326383137118757993278 0.03844823822008122671256558 0.6723950173345532022040061
1.607281557061328358670949 0.00694304121622837944194373 0.6642245982775569768108426
1.61456311412265685056866 -0.01182717799444798004171453 0.6711899635467857283543935
1.607281557061328358670949 -0.03059739720512433258647889 0.6642245982775569768108426
1.682212627742689647902807 -0.01221513237162409615255143 0.6944277601143136191552685
1.674464673699874284196198 0.009973721190336647113294788 0.688855520228627282719458
1.682212627742689647902807 0.03216257475229739037914101 0.6944277601143136191552685
1.668892433814187947760388 -0.03885552022862740623176947 0.683558946077679530084481
1.668892433814187947760388 0.03885552022862741317066337 0.683558946077679530084481
1.655572239885686247617969 0.01711789215535904074005913 0.6726901320410452189690886
1.661144479771372584053779 -0.005070961406601703393148828 0.6779867061919931936486705
1.655572239885686247617969 -0.02725981496856243538329245 0.6726901320410452189690886
1.295070084843501723170789 0.02058274686491972857438348 0.725512662021417620294983
1.290140169687003623977262 -0.0166666666666666594964763 0.7303614582759616613572007
1.295070084843501723170789 -0.01275058646841360950052735 0.725512662021417620294983
1.278301653276248117663272 -0.007010366154844710484539405 0.7401401696870038016129456
1.271393052021990488498204 -0.03048386917518191088771751 0.7450700848435017897841703
1.271393052021990488498204 0.01646313686549248644919174 0.7450700848435017897841703
1.285261326637316958709789 -0.0401401696870038598996544 0.7254826152262749960897281
1.273422810226561452395799 -0.0401401696870038598996544 0.7352613266373172473677755
1.273422810226561452395799 0.04014016968700387377744221 0.7352613266373172473677755
1.285261326637316958709789 0.04014016968700387377744221 0.7254826152262749960897281
1.342412028505945098544316 0.004446932589238465974301739 0.7120349040832933962263951
1.334824057011889886226186 -0.01666666666666666296592325 0.7196354948005639906583042
1.342412028505945098544316 -0.02888640074409486516171519 0.7120349040832933962263951
1.323089491997183619886869 -0.006802463362745517563845432 0.7298919553599290122036791
1.318942898476532565865682 0.001490723678556471866810118 0.7325478252020235503394474
1.327265105601276751201567 -0.0348240570118898071227953 0.7120765433899510776782904
1.314010796824572002705622 -0.02495985370796865998599401 0.7277012154429420842660647
1.310598438934610143746795 -0.0348240570118898071227953 0.7174863941902347441725851
1.315530540586570706906855 0.02495985370796865998599401 0.7223330039493160992236653
1.306451845413959089725608 0.04013579669607885563875627 0.720142264032329171286051
1.327265105601276973246172 0.03482405701188981406168921 0.7120765433899510776782904
1.304932101651960385524376 0.02057837387399471390514449 0.7255104755259551563284504
1.309864203303920948684436 -0.002890756155417473997198963 0.730357085285036622401833
1.304932101651960385524376 -0.02635988618482965756273373 0.7255104755259551563284504
1.391942940963654118391446 0.001175984134710131648327014 0.7092330431710559546232275
1.383885881927308325600734 -0.01666666666666666990481716 0.717530933031009121592092
1.391942940963654118391446 -0.03215734919862320295713687 0.7092330431710559546232275
1.374894991306271574416087 -0.001315114575406664413140256 0.7262101058816782250815436
1.373961159721580616022152 0.0005525485939750071281983956 0.7265913888723940505798282
1.375901150432549346902533 -0.03388588192730834086630054 0.7095462015362501428938913
1.366285383675950981796632 -0.01853432983604833689250668 0.7190786027066984331668209
1.359234483765882739447761 -0.03388588192730833392740664 0.7107125882212235179480331
1.366910259811512817762491 0.01853432983604834036195363 0.7182253743869191353610404
1.358300652181192003098431 0.0346484479087399988017637 0.7110938712119392324240152
1.375901150432549346902533 0.03388588192730834780519444 0.7095462015362500318715888
1.357675776045630389177177 0.00427132348608865765327014 0.7119470995317185302297958
1.365351552091260245447302 -0.01371045775598467644784684 0.7194598856974142586651055
1.357675776045630389177177 -0.03169223899805800187534643 0.7119470995317185302297958
1.405480518349180307779989 -0.04462233067538052405653914 0.7028865219626713178868727
1.402886521962671384500254 -0.04462233067538053099543305 0.7031982397330388545597657
1.402886521962671384500254 0.04462233067538052405653914 0.7031982397330388545597657
1.405480518349180307779989 0.04462233067538052405653914 0.7028865219626713178868727
1.407876827435327493631689 -0.03943433790236271219153963 0.7026888346623098025034437
1.407971665711128306242017 -0.01147867389364885977454112 0.7053776693246194273712035
1.407876827435327493631689 0.01647699011506499611190435 0.7026888346623098025034437
1.405377669324619605006887 -0.0160432311259315445173268 0.7056893870949871860887015
1.402688834662309869116825 0.01191243288278230789967171 0.7033122702030448758492298
1.40268883466230964707222 -0.04399889513464540213849574 0.7033122702030448758492298
1.694968031028835753204476 -0.0149157505191526949805958 0.7059074270449212651357129
1.69748401551441796542008 0.01338561384301634876736742 0.7042669006330961600781393
1.69748401551441796542008 -0.04321711488132174566745292 0.7042669006330961600781393
1.694137542776253058107727 -0.04496803102883571018333342 0.7033914425593390529201088
1.694137542776253058107727 0.04496803102883571712222732 0.7033914425593390529201088
1.691621558290670623847518 -0.01666666666666665602702935 0.7050319689711642689999849
1.690791070038087706706165 0.004941752219172364929411501 0.7025159844855821678066832
1.690791070038087706706165 0.03827508555250569433070496 0.7025159844855821678066832
1.74882312550137664075578 0.04339099630902877591243083 0.74456787080765196584764
1.747646251002753281511559 -0.01666666666666665602702935 0.7455186236558910550797918
1.74882312550137664075578 0.01005766297569544998058433 0.7445678708076521878922449
1.73847020939020913132822 -0.00168541655842150317652639 0.7401556259486306021955215
1.730471042276288784478311 0.01431291766941991845663029 0.7338418753931315041683092
1.744652914371388252590123 -0.04764625100275324265375332 0.7425252870245261371806578
1.722980417222165883117668 -0.03266500089450809218849514 0.7255412918543442390983955
1.727986247704721645135351 -0.04764625100275324265375332 0.7288617057784786412710787
1.735476872758844324451388 0.03266500089450809912738904 0.7371622893172657953186899
1.719987080590801298285442 0.03501874989175485231029938 0.7225479552229794322215639
1.744652914371388252590123 0.04764625100275325653154113 0.7425252870245261371806578
1.707490625054122634907117 0.003436332705935479184949921 0.7109269577600580980458744
1.714981250108245314223154 -0.0149157505191527019194897 0.7192275412988451410711832
1.707490625054122634907117 -0.03326783374424088779441888 0.7109269577600582090681769
1.755376606347438528388238 -0.04360191598690456304954211 0.7489785223343432551956766
1.754220519672204270378302 -0.01231153798488465039850936 0.7479570446686866214136558
1.755376606347438528388238 0.01897884001713526225252338 0.7489785223343432551956766
1.753199042006547525573978 -0.04795704466868656867806209 0.7468508949874810287639093
1.753199042006547525573978 0.0479570446686865894947438 0.7468508949874810287639093
1.751021477665656522759718 0.04370178997496211581452741 0.7447232676406186913098395
1.752042955331313267564042 0.01241141197294220489821814 0.745829417321824283959586
1.751021477665656522759718 -0.01887896602907771295698502 0.744723267640618802332142
0.9987736660233936802910648 0.04327139806508274039176243 0.7944977320416893862287111
0.9975473320467873605821296 -0.01666666666666666296592325 0.7954093650559350692219596
0.9987736660233936802910648 0.009938064731749402316851594 0.7944977320416893862287111
0.9944892151532048751860771 0.01055043287950215361026274 0.7975473320467871829464457
0.9926574322362290425658671 -0.02033023250061825881740418 0.7987736660233936136776833
0.9926574322362291535881695 0.04143109825962255909903575 0.7987736660233937246999858
0.996905798842323442876534 -0.04754733204678707192414322 0.7947678318514712625386665
0.9938476819487411795250864 -0.04754733204678707886303712 0.7969057988423233762631526
0.9938476819487412905473889 0.04754733204678708580193103 0.7969057988423233762631526
0.996905798842323442876534 0.04754733204678708580193103 0.794767831851471151516364
1.048587581384989420030251 0.04268545072772174375774767 0.7940978693427324097697806
1.047175162769979017696187 -0.01666666666666666990481716 0.7949303067488503460324978
1.048587581384989420030251 0.009352117394388419560624648 0.7940978693427324097697806
1.031904398884955220694337 -0.013874861103381272778301 0.7957792599883362072432647
1.018046053614941826026552 0.01384182943664555298646235 0.7957957758217040211690119
1.046423111907264891229374 -0.04717516276997887891830885 0.7941782558861361085433828
1.01665015083329901557363 -0.04438335720669348699596313 0.795053711612494717897448
1.029756445240598283774602 -0.04717516276997888585720276 0.7942851449164125554602833
1.03115234802224087218292 0.04438335720669348699596313 0.7950272091256220807764521
1.015898099970584889106817 0.04720819443671460391431793 0.7943016607497805914306355
1.046423111907264669184769 0.04717516276997886504052104 0.7941782558861361085433828
1.001395902781642810452922 0.04293226045501027932083105 0.7943281632366530065070265
1.002791805563285620905845 0.01239073268496233490298941 0.7950702274458626428454977
1.001395902781642810452922 -0.01815079508508560951485222 0.7943281632366530065070265
1.098566414493844511923726 0.04252069980565936768712731 0.7939542853118150000923947
1.09713282898768893502961 -0.01666666666666665602702935 0.7948267643966742124206348
1.098566414493844511923726 0.009187366472326036551110384 0.7939542853118150000923947
1.081835669629211960085513 -0.01392765205028733029035681 0.7957633216794992581100132
1.067972095776890117946323 0.01379949565435562887361076 0.7958273998774650914711515
1.096212615836617887410398 -0.04713282898768895307073379 0.7939065512456031648014232
1.066602588468700929524857 -0.04439381437130963253823168 0.7949520511645262743627427
1.079545949169951279955626 -0.04713282898768895307073379 0.7939677598154892823600903
1.080915456478140690421696 0.04439381437130963253823168 0.794843108528428321513104
1.065682375317629659861041 0.04726098538362066836526765 0.7940318380134552267435311
1.096212615836617665365793 0.04713282898768896000962769 0.7939065512456031648014232
1.051369507308189676919596 0.04277127334136353320470647 0.7941407806495532906154722
1.052739014616379309430272 0.01217695462440953127480903 0.7950161293624919967015785
1.051369507308189676919596 -0.01841736409254446371619451 0.7941407806495531795931697
1.143279987707030764809701 0.01062945424336339886317582 0.7673494665363326250329123
1.13655997541406139639264 -0.0166666666666666525575824 0.773594714828712448628778
1.143279987707030764809701 -0.02270387908996993400756459 0.7673494665363326250329123
1.121181169424237511478282 -0.01409094531298121441564852 0.7852721147372188070789889
1.11252237572738277293638 0.00322664208072818980976848 0.7907042663533454529556366
1.130190452403131429193195 -0.03655997541406150186382717 0.7672251918177821483624257
1.111234515050540050395966 -0.0339842540603760637218933 0.7896860624391732752513917
1.113523785736464599693818 -0.03655997541406150186382717 0.7778843878121165511529966
1.114811646413307322234232 0.03398425406037608453857501 0.778902591726288617834939
1.104864992039610083196521 0.04742427864631457157251759 0.7833165394282431970296443
1.13019045240313120714859 0.03655997541406151574161498 0.7672251918177823704070306
1.101287860676842811358256 0.04281214946428496537222941 0.7941000101411277434237945
1.10257572135368553389867 0.01205453748463707237814635 0.7951182140552998101057369
1.101287860676842811358256 -0.01870307449501082408538366 0.7941000101411277434237945
1.192140347785637155553218 0.003048394392342070567669676 0.7609080466067049686174073
1.184280695571274133470752 -0.0166666666666666525575824 0.7686645449818081399229186
1.192140347785637155553218 -0.03028493894099126143570899 0.7609080466067049686174073
1.174250597341560231612334 -0.00339352979276123702806478 0.7776441271343215166922391
1.172080151326209129791778 0.0009473622379408864905073195 0.7788672109117317221560484
1.176524563105342924274055 -0.03428069557127419453301798 0.7609084125158768197039194
1.165443582889256646240028 -0.02100755869736877640141515 0.7725385187633353467617781
1.159857896438676094774678 -0.03428069557127419453301798 0.7635593025199938210789696
1.166494464875628800371032 0.02100755869736880415699076 0.7698879946683900854509375
1.157687450423324992954122 0.03672686312609459852174254 0.7647823862974039155204764
1.17652456310534270222945 0.03428069557127420841080578 0.7609084125158767086816169
1.156636568436952838823117 0.01079634195539647470440947 0.7674329103923493988759219
1.163273136873905544419472 -0.009263854504031443504175058 0.7737616025407456632478898
1.156636568436952838823117 -0.02932405096345936518220654 0.767432910392349176831317
1.241876536785135209939313 0.001175361668087961022205468 0.7592988248829528608041528
1.233753073570270419878625 -0.0166666666666666525575824 0.7674642176191791564932032
1.241876536785135209939313 -0.03215797166524537314957755 0.7592988248829526387595479
1.225000615146869531457696 -0.000838250180135293636654592 0.7758388653270047452537028
1.224371619938333433097455 0.0004197402369370795919417683 0.7760481202986039273028496
1.225739444775215236660415 -0.03375307357027038102081917 0.7594505888241239732749932
1.216457411695067714063612 -0.01792465708373902621985962 0.7683461779524034529487153
1.209072778108548851250248 -0.03375307357027038102081917 0.7601232941857493097259635
1.216986986351814348239486 0.01792465708373905397543524 0.7678252365319495620354928
1.208443782900012530845402 0.03417158351346865491349192 0.7603325491573482697305053
1.225739444775215236660415 0.03375307357027039489860698 0.7594505888241240842972957
1.207914208243265896669527 0.002939282334536515335632334 0.7608534905778021606437278
1.21582841648653161570337 -0.01456563451226546013206331 0.7685554329240026349978621
1.207914208243265896669527 -0.03207055135906744514073807 0.7608534905778021606437278
1.260753207328003222542634 -0.03865217352602663691829576 0.7559250570720923434464567
1.255925057072092343446457 -0.03865217352602663691829576 0.7563028677876677541291883
1.255925057072092343446457 0.03865217352602665773497748 0.7563028677876677541291883
1.260753207328003222542634 0.03865217352602665773497748 0.7559250570720923434464567
1.265330213748808496632137 -0.02899587301420469137580582 0.7556739132369867384397821
1.266175976729884133931137 -0.007010366154844707015092453 0.7613478264739732548349593
1.265330213748808496632137 0.01497514070451527040672701 0.7556739132369865163951772
1.261347826473973254834959 -0.01591104523551576180318001 0.761725637189548665517691
1.255673913236986516395177 0.006074461623844213016554239 0.7564295346681375598052455
1.255673913236986516395177 -0.03789655209487574616389338 0.7564295346681375598052455
1.793441249551508853699033 0.01214997980004971570022754 0.7687087302485406947738511
1.786882499103017885033751 -0.0166666666666666525575824 0.774516239451533916593462
1.793441249551508853699033 -0.02118335353328361717051287 0.7687087302485406947738511
1.778212046102691346050051 -0.0006742393339863917995496978 0.7788862854366778165626783
1.776100343550855775731634 0.003549165769684701782910041 0.7774488222188287167568888
1.763634580905949933438137 -0.03418429840925142626506528 0.7614570165650588196015747
1.778952147225733249058521 -0.03688249910301800299494701 0.7644083232333580557593677
1.769453230231398777050345 -0.01819187107657116442283041 0.7701274695653853585852744
1.769453230231398777050345 0.01819187107657120605619383 0.7701274695653854696075769
1.763634580905949711393532 0.03418429840925145402064089 0.7614570165650589306238771
1.778952147225733249058521 0.03688249910301802381162872 0.7644083232333580557593677
1.755704229028665297462908 -0.04294667062445140653936804 0.7513491003468831808120854
1.754875765034657364438431 -0.01231153798488464692906241 0.7526982006937663616241707
1.755704229028665297462908 0.01832359465468210574234931 0.7513491003468832918343878
1.760694414360106430095243 0.0006742393339864334329131212 0.7613686536940929006078704
1.767341527679563428776532 -0.01396846597290006888880676 0.7686900063475362587794848
1.832761999810235131747049 -0.01116054920745418801986126 0.7939225490176891053550889
1.825497176378584107681036 0.0100178821612572632737681 0.7878450980353781663012569
1.832761999810235131747049 0.03119631352996871109795052 0.7939225490176891053550889
1.819419725396272946582599 -0.03784509803537811079010567 0.7815562893662049148701954
1.819419725396272946582599 0.03784509803537811772899957 0.7815562893662050258924978
1.806077450982310761418148 0.01311257873240982002593924 0.7691900297147207243853018
1.812154901964621922516585 -0.008065852636301627798243175 0.7754788383838940868386658
1.806077450982310761418148 -0.02924428400501308603076644 0.7691900297147207243853018
0.955644250842152542801955 -0.04255527433582446950044442 0.8481995251779770317313023
0.955522837654110723804024 -0.01282289064653694896089853 0.8463990503559541966893676
0.955644250842152542801955 0.01690949304275058545643518 0.8481995251779770317313023
0.9719762048118598674051327 -0.04252457751905046323681603 0.8083676550387755010973478
0.9601681298607982473214406 -0.03892362787500465437506847 0.8232338468834191624878827
0.9583523066303885062922063 -0.0463990503559541869749161 0.8361628023096111528289498
0.9601681298607982473214406 0.03892362787500466131396237 0.8232338468834192735101851
0.9583523066303885062922063 0.04639905035595419391381 0.8361628023096111528289498
0.9719762048118598674051327 0.04252457751905047711460384 0.8083676550387757231419528
0.9809548107866434829560376 -0.01530747797288165186480047 0.8037377112404746615226259
0.9710839722540338669887205 0.01055043287950215014081579 0.8074754224809495006809357
0.9809548107866437050006425 0.03640834373188595041170856 0.8037377112404749945895333
0.9592758973029722469050284 0.01306571702262086451251655 0.822341614325593273093773
0.9573386608845204648332583 -0.009191244185717130366075622 0.833470094929762095325998
1.838239027758291399550217 -0.01401595890407433819824234 0.8130863261230050209604769
1.844119513879145744184029 0.007556402187550053002607076 0.8085311938834467415659901
1.844119513879145744184029 -0.03558831999569871118449527 0.8085311938834467415659901
1.840795121626440877804498 -0.03823902775829104982996398 0.8072058400021506763266643
1.840795121626440877804498 0.03823902775829104982996398 0.8072058400021507873489668
1.834914635505586533170685 -0.01666666666666666990481716 0.8117609722417089557211511
1.837470729373736233469572 -0.001743090080451694225474601 0.8058804861208545000650361
1.837470729373736233469572 0.03159024325288162932112712 0.8058804861208546110873385
1.899649904166824665452395 0.04795583404410836553255493 0.8483059298772837042434958
1.899299808333649197678028 -0.01666666666666667684371106 0.8486278211888788058914201
1.899649904166824665452395 0.01462250071077502919236757 0.8483059298772837042434958
1.890054742582616409407592 -0.001823464835398434791269295 0.8418782074180151120401661
1.881159772664759310956129 0.01596647500031585578672555 0.8348067023355563165409876
1.898671574396447070398608 -0.04929980833364921988248852 0.8479995872516765675896977
1.873738171749125491771792 -0.03445660650238096395225895 0.8268869904658198155544824
1.882004907729780684988441 -0.04929980833364920600470072 0.8333302616110765947965433
1.889426508645414504172777 0.03445660650238095007447114 0.8412499734808129847607461
1.873109937811923586536977 0.03515679816873174684532799 0.8262587565286179103196673
1.898671574396447292443213 0.04929980833364920600470072 0.8479995872516765675896977
1.857421600915634352091388 0.004474172597990750017971084 0.8118957735136249631580085
1.864843201831268171275724 -0.0140159589040743416676893 0.8198154853833612420999088
1.857421600915634352091388 -0.03250609040613941513875318 0.8118957735136247411134036
1.901734777745907489787669 -0.0479334944720383807070796 0.8496682722179459412714664
1.901364980546034866293326 -0.01526361670281319027342448 0.8493365444358917937250908
1.901734777745907489787669 0.01740626106641200709912454 0.8496682722179459412714664
1.901033252763980829769253 -0.04933654443589186727736617 0.848996285073175482871477
1.901033252763980829769253 0.04933654443589186033847227 0.848996285073175482871477
1.900331727782054169750836 0.04799257014635102680522039 0.8483242979284050244714876
1.900663455564108206274909 0.01532269237712582249377746 0.8486645572911213353251014
1.900331727782054169750836 -0.01734718539209936793987765 0.8483242979284050244714876
0.9562027095825069711310107 -0.04155635097761116447667717 0.8977590605601180051564825
0.9564627639510764334218607 -0.01270489652404169222954522 0.8955181211202360991308069
0.9562027095825069711310107 0.01614655792952778695648064 0.8977590605601180051564825
0.9551003439862736366094964 -0.04655259379183038920269055 0.8531784559762087827294863
0.9554193954160907775730038 -0.0420707149120665285790821 0.8676041832029934841585828
0.9556765773833185706465088 -0.04551812112023613521305521 0.8825471467655754409520341
0.9554193954160907775730038 0.04207071491206654245686991 0.8676041832029934841585828
0.9556765773833185706465088 0.04551812112023614909084301 0.8825471467655754409520341
0.9551003439862736366094964 0.04655259379183038920269055 0.8531784559762087827294863
0.9555674791242144694436433 -0.04270881777170067172821888 0.8517237031040849615237676
0.9553692942182344660650983 -0.01282289064653694896089853 0.8534474062081696121850882
0.9555674791242144694436433 0.01706303647862677380642182 0.8517237031040847394791626
0.9556883456480514960063033 0.01218478778690281101593218 0.8678731334349543136141847
0.9562055819838486403483557 -0.0132192604584970528625032 0.8805751575576541423373556
1.944038738156378176569206 0.01559701099703606971824676 0.8715582728406580104163481
1.938077476312756175502727 -0.0166666666666666594964763 0.8768372436548960147106868
1.944038738156378176569206 -0.01773632233629726315249364 0.8715582728406580104163481
1.929354508286957425866603 -0.0007792693849310889254305978 0.8801337776718881622528556
1.926592802104780233207748 0.004744142979422594913474498 0.8781513408746424165229882
1.91182870592472831106079 -0.03723392407324186553774226 0.8611271809428016066334521
1.92807359647163822913285 -0.03807747631275591737587405 0.8661318388318512973000907
1.919070879583669508861021 -0.02134652679150628867832395 0.8698501489686005783141809
1.919070879583669508861021 0.02134652679150628867832395 0.8698501489686005783141809
1.911828705924728533105394 0.03723392407324185859884835 0.8611271809428016066334521
1.92807359647163822913285 0.03807747631275592431476795 0.8661318388318512973000907
1.901824826083610364690912 -0.04775339779663246436713919 0.8504217761197570002451585
1.901545077221440838144417 -0.01526361670281319200814796 0.8508435522395140226947774
1.901824826083610364690912 0.01722616439100608728973718 0.8504217761197570002451585
1.908787250880382035944649 0.0007792693849310883833295116 0.8595665202653128833532037
1.916309173401492760291376 -0.01582311442715260418889756 0.8678677121713548325843135
1.979233461706687124959103 -0.01524518338683286851342746 0.8944786450935198196532383
1.972898763213063677568471 0.007045440133540017621505136 0.8889572901870395060797136
1.979233461706687124959103 0.02933606365391290549116121 0.8944786450935198196532383
1.967377408306584030128761 -0.03895729018703955603974975 0.8832384124356599253147238
1.967377408306583586039551 0.03895729018703955603974975 0.8832384124356598142924213
1.955521354906480269164604 0.01647682487131969797378162 0.8719981797777999199539067
1.961042709812960582738128 -0.005813798649053186426427509 0.8777170575291795007188966
1.955521354906480269164604 -0.02810442216942607429608358 0.8719981797777999199539067
0.9638250041915586985297182 -0.03122341417420170309182659 0.9450484183657601455763597
0.9643398745471386535044189 -0.007793244109347474170290671 0.9400968367315205576062453
0.9638250041915586985297182 0.01563692595550675301652177 0.9450484183657602565986622
0.9581714234789833195549136 -0.04285002610929786182047962 0.9061905384076706093665621
0.9611421200419103527678999 -0.03294686284081874833029602 0.9179056234400976288512197
0.9620038443752189083468807 -0.04009683673152088928537395 0.9309973031614131588895589