# geometry NO_DATA 660
#  x  y  z
1.349290496992188836955506 0.04557793071364042020165996 0.796287433721451720636253
1.348580993984377807137776 -0.01666666666666666990481716 0.7970794623490089492179322
1.349290496992188836955506 0.01224459738030708386147261 0.796287433721451720636253
1.344592713598730115975854 0.008690105895371533911708539 0.7985809939843775406842497
1.341313936220893676676269 -0.0232242214223393195204892 0.7992904969921887925465853
1.341313936220893676676269 0.04060443321308239428280018 0.7992904969921887925465853
1.34802993615705091201562 -0.04858099398437751986756794 0.7965284045216819430734745
1.344041655771403220853699 -0.04858099398437751986756794 0.7980299361570504235174894
1.344041655771403220853699 0.04858099398437751986756794 0.7980299361570506455620944
1.34802993615705091201562 0.04858099398437751986756794 0.7965284045216822761403819
1.395114952738146563149257 0.02446193713287276097489986 0.7793469843947262720718072
1.390229905476292771027147 -0.0166666666666666594964763 0.7823459213045828031241058
1.395114952738146563149257 -0.008871396200460578834734449 0.7793469843947262720718072
1.375213193469370098753757 -0.01336675734717941189944046 0.788579950816549191117133
1.365081528724300330424057 0.006896572142959537556061722 0.791815043418659159080164
1.389076390398381377622172 -0.04022990547629287649833429 0.7811924062266710766522237
1.36343157406455661728728 -0.03692999615680562369712803 0.7919634664430341697283211
1.37240972373171432607819 -0.04022990547629287649833429 0.7875748587630125863157105
1.374059678391458039214967 0.03692999615680562369712803 0.7874264357386376866898559
1.362278058986645223882306 0.04670009068051273609656349 0.790809951365122665301044
1.389076390398381377622172 0.0402299054762928903761221 0.7811924062266710766522237
1.351649954659743801954619 0.04369702740977563643065551 0.7953469820695193703841142
1.353299909319487515091396 0.01366360339592955115695094 0.7951985590451441376913522
1.351649954659743801954619 -0.01636982061791651676951886 0.7953469820695193703841142
1.44276145800464772328553 -0.008850113647144122741572403 0.76114681850511356486777
1.446380729002324061482909 0.01724467769083689802633863 0.7614358240171986702549134
1.446380729002323839438304 -0.0349449049851251608567182 0.7614358240171986702549134
1.425300861482099890054087 -0.03209225425966499845031876 0.7658727368107852706557992
1.436632926276275146193484 -0.04276145800464768720328124 0.7644464114480552519026446
1.412253465813109176707485 -0.03933079625501731402259509 0.7710361483080658828725973
1.412253465813109176707485 0.0393307962550173279003829 0.7710361483080658828725973
1.425300861482099890054087 0.03209225425966502620589438 0.7658727368107853816781017
1.436632926276275146193484 0.04276145800464770801996295 0.7644464114480552519026446
1.431429393210472245101528 -0.005997462921683964671981659 0.7625731438678435836209246
1.423716599413973327159511 0.00942812467131437167977559 0.764288474742658818783525
1.410669203744982613812908 0.0008986983232465415877970871 0.7694518862399393199780206
1.405334601872491484542138 0.0235628279115971950297137 0.7728999668624045860099159
1.405334601872491262497533 -0.02176543126510411055307692 0.7728999668624045860099159
1.498646811509546150631422 -0.01462514230025262380874285 0.7523739506736607518533333
1.499323405754772853271106 0.01735500254262697245044578 0.7527181186116408406761025
1.499323405754772853271106 -0.04660528714313222353737842 0.7527181186116408406761025
1.471808765202757607326589 -0.04415146344077243434345093 0.7564952870265445605824084
1.486227757835037355249597 -0.0486468115095462644292823 0.755268375175364714557702
1.455818692781317702511501 -0.04550465193122617268972618 0.7597269692910788574380376
1.455818692781317702511501 0.0455046519312261935064079 0.7597269692910790794826426
1.471808765202757607326589 0.04415146344077245516013264 0.7564952870265445605824084
1.486227757835037355249597 0.0486468115095462644292823 0.7552683751753648255800044
1.484227818877266402708415 -0.01217131859789284675787968 0.7536008625248405978780397
1.470485420490213579469696 0.01531347817621294023215928 0.7551719423140006437478178
1.454495348068773674654608 -0.008850113647144129680466307 0.7584036245785350516257495
1.452247674034386815122843 0.01998787161741538004333663 0.7600642270539094136339031
1.452247674034386815122843 -0.03768809891170364634316314 0.7600642270539094136339031
1.549219127046096211586246 -0.01544903303619435397386894 0.7513896897691397791518853
1.549609563523048016975281 0.01710342734323539934382374 0.7516080701074240311143626
1.549609563523048016975281 -0.04800149341562410382211468 0.7516080701074240311143626
1.51794162830753287529717 -0.04792336946638031669465363 0.7520558345947696565758633
1.533960416184341202239239 -0.04921912704609641281416899 0.7520167726201477664815798
1.501665398117818073231433 -0.0487042424202838997171483 0.7526861603010248646938862
1.501665398117817851186828 0.04870424242028388583936049 0.7526861603010248646938862
1.517941628307532653252565 0.04792336946638031669465363 0.7520558345947696565758633
1.533960416184341202239239 0.04921912704609641975306289 0.7520167726201477664815798
1.533200339169287662599572 -0.01537090908695056337696094 0.7514287517437616692461688
1.517571987769430919001934 0.01588579371276308341287553 0.7516861940566679223252322
1.501295757579716116936197 -0.01462514230025262380874285 0.7523165197629231304432551
1.500647878789858058468099 0.01741243345336460773831178 0.7526894031562720854822146
1.500647878789858058468099 -0.04666271805386985188635052 0.7526894031562720854822146
1.596765494564636345131703 -0.01113791025603214253358875 0.7559988836406810186474559
1.598382747282318216974772 0.01896091764193744491628912 0.7571460091283164217657031
1.598382747282318216974772 -0.04123673815400173692236052 0.7571460091283164217657031
1.566116830607926946328234 -0.0459645660884304835258618 0.7526846693766240381506805
1.58238303303649097131256 -0.0467654945646362521505246 0.7550485833438385085969458
1.551067416658942210716532 -0.04919907152379422721200086 0.7516762334741784457037284
1.551067416658942210716532 0.04919907152379424802868257 0.7516762334741784457037284
1.566116830607926946328234 0.04596456608843050434254351 0.7526846693766240381506805
1.58238303303649097131256 0.0467654945646362590894185 0.7550485833438385085969458
1.580499292136072542191982 -0.01586573819046090128015436 0.7536349696734665482011906
1.565850342425190167006122 0.01343216123130292795340157 0.752418181193887591895475
1.550800928476205431394419 -0.01544903303619435397386894 0.7514097452914418884262204
1.550400464238102404834763 0.01708337182093322414999648 0.7516180978685751412626814
1.550400464238102404834763 -0.04798143789332193209773436 0.7516180978685751412626814
1.640517805181797017510803 0.001228627023905017436392062 0.7684298416634887107790064
1.645258902590898353324178 0.02507976553903542085710576 0.7726363910996731920732827
1.645258902590898575368783 -0.02262251149122538468327903 0.7726363910996731920732827
1.618657012609730161400989 -0.03574375780224101767368339 0.7614725407612663587997304
1.632936655586618712732161 -0.04051780518179707440973303 0.7680331639167741197837813
1.606731443352164889759592 -0.04522595262044394603950792 0.7594958215574820759030672
1.606731443352165111804197 0.04522595262044394603950792 0.7594958215574820759030672
1.618657012609730161400989 0.03574375780224101767368339 0.7614725407612663587997304
1.632936655586618934776766 0.04051780518179707440973303 0.7680331639167741197837813
1.626238162204908466179631 -0.01189261928711060969932056 0.7618692185079809497949554
1.61669961663712147270644 0.007184471848463736334822194 0.7595151447886574480605759
1.604774047379556423109648 -0.01113791025603215120720613 0.7575384255848733872085177
1.602387023689778366986047 0.01742137569774512839693159 0.7579157801004124950239316
1.602387023689778366986047 -0.03969719620980942387244994 0.7579157801004124950239316
1.679465884078686688241078 -0.01654698649952041772381861 0.7960128705782070213103907
1.670713636172032723337111 0.008812087990226976502716738 0.7920257411564142202564653
1.679465884078686466196473 0.03417116247997437072925209 0.7960128705782070213103907
1.666726506750239700238581 -0.04202574115641405372301165 0.7882938507568262309632701
1.666726506750239700238581 0.04202574115641406066190555 0.7882938507568262309632701
1.653987129421793156325293 0.02658770151365241057872524 0.7805748309354454406161494
1.657974258843585957379219 0.001228627023905018520594234 0.7843067213350334299093447
1.653987129421793156325293 -0.02413044746584237093545156 0.7805748309354454406161494
1.198642591011411351331617 0.04179698410183999707223634 0.8431543930904286110461499
1.197285182022822747072155 -0.01666666666666667337426411 0.8445410830623313325205004
1.198642591011411351331617 0.008463650768506658997325509 0.8431543930904286110461499
1.19030748056821256142257 0.00271126375744568538089796 0.847285182022822658254313
1.184687188102190535943237 -0.02790725159871038085768191 0.8486425910114114845583799
1.184687188102190535943237 0.03332977911360175682364826 0.8486425910114113735360775
1.19635981114231637612022 -0.04728518202282273874548224 0.8436157121818252946354733
1.189382109687706190470635 -0.04728518202282273874548224 0.8463598111423165093469834
1.189382109687706190470635 0.04728518202282273874548224 0.8463598111423165093469834
1.196359811142316598164825 0.04728518202282273874548224 0.8436157121818250725908683
1.244517675120984767644927 0.0230958857399534492338411 0.8285782106189687468145166
1.239035350241969313245249 -0.01666666666666668378260496 0.8310656179909613472389651
1.244517675120984767644927 -0.01023744759337988537162278 0.8285782106189687468145166
1.225556205019112443466156 -0.01029162377904723618682326 0.8358478287981596643874127
1.217559384675270806042136 0.005702016908636075090410777 0.8381426322333651590668069
1.238191071087270334061259 -0.03903535024196943398200332 0.8302213388362622570326721
1.214371863231461068366457 -0.03266030735434998638622162 0.838586054716683571008673
1.221524404420603726606487 -0.03903535024196943398200332 0.8354469721267789861229858
1.224711925864413464282165 0.0326603073543499655695399 0.8350035496434605741811197
1.213527584076762089182466 0.04362495711238054824088195 0.8377417755619844808023799
1.238191071087270334061259 0.03903535024196942010421552 0.8302213388362622570326721
1.203187521443809693266758 0.03813675919139781350652996 0.8413242806352074776299332
1.206375042887619208897831 0.01117846874568392129267735 0.8408808581518890656880671
1.203187521443809693266758 -0.01577982170002995704338744 0.8413242806352076996745382
1.291096768252752546857209 -0.007888563986968695485035852 0.8132922830870965569260989
1.295548384126376184610763 0.01654153759911707391450086 0.8132297185533217120934069
1.295548384126376184610763 -0.03231866557305444753733781 0.8132297185533217120934069
1.274984048449943951908381 -0.02947977793555359854460463 0.8172206135305245533473339
1.285842219958011067859616 -0.04109676825275243583490692 0.8158011697117741878315655
1.262768997656900982207162 -0.03838300968280115854636136 0.8214659320725594682244264
1.262768997656900982207162 0.03838300968280115854636136 0.8214659320725595792467288
1.274984048449943951908381 0.02947977793555357078902901 0.8172206135305246643696364
1.285842219958011067859616 0.04109676825275242195711911 0.8158011697117741878315655
1.280238596744685430905974 -0.005049676349467849961749621 0.8147117269058468114195648
1.273832041110241952708293 0.007763434919419072606505683 0.8160686061908225541472461
1.261616990317198983007074 0.0007272021646506868913784061 0.820313924732857580046641
1.255808495158599491503537 0.02244354518078518767598695 0.8232023639899167521960521
1.255808495158599491503537 -0.02098914085148379654599538 0.8232023639899167521960521
1.318814664331415587028573 -0.04515852845463656783930873 0.8061362780503964486911173
1.306136278050396448691117 -0.04515852845463656783930873 0.810525329390245574678886
1.306136278050396448691117 0.04515852845463656090041482 0.810525329390245574678886
1.318814664331415587028573 0.04515852845463656090041482 0.8061362780503965597134197
1.327777508334719858140716 -0.01980175589259836055333608 0.8024207357726818035104088
1.317519857826382478904748 0.008690105895371530442261587 0.8048414715453635626118967
1.327777508334719858140716 0.03718196768334143531564706 0.8024207357726818035104088
1.304841471545363340567292 -0.007888563986968688546141948 0.8092305228852124665550605
1.302420735772681803510409 0.02060329780100120938834962 0.8111988384523798334413414
1.302420735772681581465804 -0.03638042577493857954173961 0.8111988384523798334413414
1.697646417593855483474385 -0.01154711371609713939367925 0.8049133588814287865176311
1.698823208796927719532732 0.01943263721109188268965084 0.8062963441536414865851157
1.698823208796927719532732 -0.04252686464328615800756239 0.8062963441536414865851157
1.694895919458707655991248 -0.04764641759385568331452987 0.8037365676783567725038893
1.694895919458708100080457 0.04764641759385569025342377 0.8037365676783567725038893
1.693719128255635641977506 -0.0166666666666666664353702 0.8023535824061440724364047
1.690968630120488258583578 0.006458505584082664847944688 0.8011767912030720584226628
1.690968630120488258583578 0.0397918389174159933818764 0.8011767912030720584226628
1.735564474752564478876593 0.008470668331545805340709876 0.8270041927465415776410396
1.742782237376282239438297 0.02736847641744370035477019 0.8323550976219300512326527
1.742782237376282239438297 -0.01042713975435208273445653 0.8323550976219300512326527
1.720370123125783523576615 -0.0262428583087066999435244 0.8181389817065523040184871
1.732375981570521306096566 -0.03556447475256456491887747 0.8260468409837296022146802
1.710921219082834454638942 -0.04067838355614213086131059 0.8134809955581193685603125
1.710921219082834454638942 0.04067838355614213086131059 0.8134809955581193685603125
1.720370123125783523576615 0.02624285830870668259628964 0.8181389817065523040184871
1.732375981570521306096566 0.03556447475256455797998356 0.8260468409837296022146802
1.723558616307826696356642 -0.007345050222808811868357992 0.8190963334693642794448465
1.718770520486806674398395 0.002231141419231211665136216 0.8165393790675754548402665
1.709321616443857827505326 -0.01154711371609714633257315 0.8118813929191424083597894
1.704660808221929002570505 0.01246460317337831982809071 0.8097803611724982975061948
1.704660808221929002570505 -0.03555883060557260555434311 0.8097803611724982975061948
1.763428118952461431945267 -0.0347399324799270853292299 0.848168051432388603316781
1.759461982327647611157317 -0.00507049628181618656369567 0.8463361028647775619049298
1.763428118952461653989872 0.02459893991629471393656203 0.8481680514323888253613859
1.757630033760036347700861 -0.04633610286477755912937226 0.844070052264828341037628
1.757630033760036569745466 0.04633610286477757300716007 0.844070052264828341037628
1.751831948567611263456456 0.0381401045296567153819467 0.8399720530972678567138701
1.753663897135222526912912 0.00847066833154581227960378 0.8422381036972170775811719
1.751831948567611263456456 -0.02119876786656508388384523 0.8399720530972678567138701
1.09854741214005446892088 0.04097988598230269119415681 0.8924324738422481084754168
1.097094824280108849023918 -0.01666666666666666296592325 0.8940373551312057465167982
1.09854741214005446892088 0.007646552648969355721331187 0.8924324738422481084754168
1.094098591097685924111715 0.01067420030182032915366808 0.8970948242801088934328391
1.092554945775208175007265 -0.01975395731162200158026465 0.8985474121400544023074985
1.092554945775208175007265 0.04110235791526264947925995 0.8985474121400544023074985
1.096348482809505364699021 -0.0470948242801089850262386 0.893291013660602262191901
1.093352249627082217742213 -0.04709482428010899890402641 0.8963484828095054091079419
1.093352249627082439786818 0.04709482428010899890402641 0.8963484828095054091079419
1.096348482809505586743626 0.04709482428010900584292031 0.893291013660602262191901
1.141588400928012170254533 -0.009135407861784582833619694 0.8621772284744289027713648
1.145794200464006040718346 0.01578632639956084604548892 0.8617370583408759943111477
1.145794200464006040718346 -0.0340571421231300047738344 0.8617370583408759943111477
1.12629716910497035264882 -0.02915260523483770294106421 0.8680421015102914861216732
1.136745937925049965144808 -0.04158840092801208143669101 0.8655898330661454531664845
1.113836301974297615657861 -0.03756420430682561040214296 0.8774454994920610761965918
1.113836301974297615657861 0.03756420430682560346324905 0.8774454994920610761965918
1.126297169104970574693425 0.02915260523483770294106421 0.8680421015102917081662781
1.136745937925049965144808 0.04158840092801209531447881 0.8655898330661454531664845
1.13113963210793277980315 -0.00423087097349227753140255 0.8646294969185751577711585
1.124896662823847259815579 0.008255067594678755504844503 0.8666415952291683932884325
1.11243579569317452282462 0.0105517283688603517866067 0.8760449932109378723410487
1.106217897846587305821231 0.03144926600901930269227336 0.8834362928821142268986932
1.106217897846587305821231 -0.01034580927129858524127215 0.8834362928821142268986932
1.16467305355470251981842 -0.04622398888513016418366774 0.8549840883426460536043123
1.154984088342646098013233 -0.04622398888513016418366774 0.8587497177450870156079077
1.154984088342646098013233 0.04622398888513016418366774 0.8587497177450870156079077
1.16467305355470251981842 0.04622398888513016418366774 0.8549840883426460536043123
1.171265935981547379185486 -0.02684605846101780629586742 0.8518880055574349352554009
1.163464976326926247907068 0.002711263757445694921877077 0.8537760111148697816929598
1.171265935981547379185486 0.03226858597590918920072767 0.8518880055574349352554009
1.153776011114869826101881 -0.009135407861784579364172743 0.8575416405173108547188576
1.151888005557434979664322 0.0204219143566789183841248 0.8594192643623169702848941
1.151888005557434979664322 -0.03869273008024808058191724 0.8594192643623169702848941
1.793177217186917804525592 -0.001667331084879353306910099 0.8643224506039759447162396
1.796588608593458591400349 0.02484321943537172797111801 0.8684107269883283297673415
1.796588608593458591400349 -0.02817788160513044065647037 0.8684107269883283297673415
1.785720027119217734323797 -0.04317721718691775595333482 0.8609110591974347137522727
1.785720027119217512279192 0.04317721718691775595333482 0.8609110591974348247745752
1.782308635712676281315225 -0.01666666666666666296592325 0.8568227828130822176788683
1.774851445644976211113431 -0.0118932790948984377227271 0.8534113914065410977372039
1.774851445644976211113431 0.02144005423843490035218373 0.8534113914065410977372039
1.83088799497034404595297 -0.01462936057143300605520864 0.8955173555417768049835558
1.822167964172506593456546 0.009738683845454247992035057 0.8910347110835538098072561
1.83088799497034404595297 0.0341067282623414985698318 0.8955173555417769160058583
1.817685319714283487257944 -0.04103471108355392221733737 0.8863503566660038135438526
1.817685319714283487257944 0.04103471108355392915623128 0.8863503566660038135438526
1.804482644458222928562918 0.02270071333200790464346142 0.8771833577902308221041494
1.80896528891644603476152 -0.001667331084879349837463147 0.8818677122077807073452504
1.804482644458222928562918 -0.02603537550176660692047292 0.8771833577902308221041494
1.078671017949344390629562 -0.01371905129894171113114076 0.9423900692482859442478116
1.075750405102243068000689 0.00439442053096379854626452 0.9347801384965720439268466
1.078671017949344390629562 0.02250789236086931169311676 0.942390069248286055270114
1.082237470434241677352816 -0.03465869164892365628105608 0.9185670369499980836280884
1.076176967701712339220421 -0.01943883014549583482244444 0.9276237728649509017841979
1.079036857124989312595176 -0.03478013849657217437805201 0.9366197853560793706861887
1.076176967701712339220421 0.01943883014549584176133834 0.9276237728649509017841979
1.079036857124989312595176 0.03478013849657218825583982 0.9366197853560793706861887
1.082237470434241899397421 0.03465869164892366321994999 0.9185670369499980836280884
1.085011521144025214979933 -0.007317824680436670232996921 0.9076706541755379387126368
1.079011741835319782012448 0.01067420030182032394949765 0.915341308351076077265418
1.085011521144025214979933 0.02866622528407732073407743 0.9076706541755379387126368
1.072951239102790221835448 0.001446805163238844109396819 0.9243980442660288954215275
1.072890515678966094625935 -0.001325358315590325145039152 0.9257841260054435750248558
1.847703001784020582221046 -0.01149248493940079399178167 0.9048840890796123748174296
1.848851500892010557564049 0.01954385017795297677101196 0.9063226808352555785575078
1.848851500892010557564049 -0.04252882005675456822402225 0.9063226808352555785575078
1.845387509481404286759698 -0.04770300178402043372871688 0.9037355899716226215190318
1.845387509481404286759698 0.04770300178402044066761079 0.9037355899716225104967293
1.844239010373414311416695 -0.01666666666666666990481716 0.9022969982159794177789536
1.841923518070797793910742 0.007441685629474678945194377 0.9011484991079896644805558
1.841923518070797793910742 0.04077501896280801702010521 0.9011484991079896644805558
1.884488214522743287915318 0.01052444937956636267228916 0.9291073435003727176706434
1.892244107261371599548738 0.02834599723564334289305222 0.9349470087848610333480792
1.892244107261371599548738 -0.007297098476510608007494785 0.9349470087848611443703817
1.872466445112115573934375 -0.02254028670729413957873888 0.9213115639227048569992462
1.883159147871057648160331 -0.03448821452274364318668631 0.9289331580380968400589836
1.863555671184077278113023 -0.03805207218455049222871622 0.9161427620477097244489073
1.863555671184077278113023 0.03805207218455049222871622 0.9161427620477097244489073
1.87246644511211535188977 0.02254028670729412570095107 0.9213115639227048569992462
1.883159147871057204071121 0.03448821452274364318668631 0.9289331580380967290366812
1.873795511763801435733967 -0.00471873885121717063367841 0.9214857493849808456332084
1.870858701743487673141431 0.001154881189410294703434623 0.9197038205540772892732093
1.861947927815449377320078 -0.01149248493940080093067557 0.9145350186790821567228704
1.855973963907725066135868 0.009892920578483028332117399 0.9111481456349903584879257
1.855973963907725066135868 -0.03287789045728461978512769 0.9111481456349903584879257
1.909291193565612498872497 -0.03937249234166092376474566 0.9486636859072732352871071
1.90665006792189650752789 -0.008711787193780943031051756 0.9473273718145465149831352
1.909291193565612498872497 0.0219489179540990342331952 0.9486636859072731242648047
1.905313753829169565179313 -0.04732737181454663849544673 0.9455925772637231441208883
1.905313753829169565179313 0.04732737181454665931212844 0.9455925772637230330985858
1.901336314092726853530735 0.04118515452744635207960044 0.9425214686201728309100645
1.902672628185453351790102 0.01052444937956637828480044 0.9442562631709964238169164
1.90133631409272663148613 -0.02013625576831360591834041 0.9425214686201730529546694
1.092443171710687499498249 0.002557173506632337035837654 0.9671687483759617842693501
1.096221585855343683135743 0.02833367855065321155860758 0.9730022543179550620351392
1.096221585855343683135743 -0.02321933153738853922165575 0.9730022543179549510128368
1.090085462787492298630809 -0.04244317171068753835605492 0.9633903342313054896095537
1.090085462787492298630809 0.04244317171068755223384272 0.9633903342313054896095537
1.086307048642836114993315 -0.01666666666666665602702935 0.957556828289312322866067
1.083949339719640914125875 -0.003162407758348654597535532 0.953778414144656139228573
1.083949339719640914125875 0.03017092557498467914056661 0.953778414144656139228573
1.112623495093999936855766 -0.03530330182870329569500001 0.9979267969227031409573669
1.109421552162944912822695 -0.006116374649963386006534805 0.9958535938454065039593388
1.112623495093999936855766 0.0230705525287765306208243 0.9979267969227031409573669
1.10734834908564838684697 -0.04585359384540657612383541 0.990872050342685994905878
1.10734834908564838684697 0.04585359384540659000162321 0.990872050342685994905878
1.102073203077296614793568 0.03174410068537225626528198 0.9838173037626687378320867
1.104146406154593584858503 0.002557173506632336168475916 0.988798847265389135863245
1.102073203077296836838173 -0.02662975367210757698943624 0.9838173037626687378320867
1.941275818287592880295733 0.001914969677015375491141436 0.9680149998842481062766296
1.945637909143796528965709 0.02652412129794154416195795 0.9729437271998853109522543
1.945637909143796528965709 -0.02269418194391079057758986 0.9729437271998853109522543
1.932948682213572633159515 -0.04127581828759283033569716 0.9636529090280445686289568
1.932948682213572633159515 0.04127581828759283033569716 0.9636529090280445686289568
1.92858659135736898448954 -0.0166666666666666664353702 0.9587241817124070308864248
1.920259455283348737353322 -0.01743596890618812067508259 0.9543620908562033822164494
1.920259455283348737353322 0.01589736442714521913455172 0.9543620908562033822164494
1.973255385908160519647936 -0.02344401183103023839082724 0.996699397739190473544113
1.966578596345294416281035 0.003288116980684213739444255 0.9933987954783809470882261
1.973255385908160519647936 0.03002024579239866500235401 0.996699397739190473544113
1.963277994084484889825148 -0.04339879547838111639723735 0.9893235492443648304572434
1.963277994084484889825148 0.04339879547838111639723735 0.9893235492443648304572434
1.953300602260809260002361 0.02864709848872983022349814 0.9819477007495391873703738
1.956601204521618786458248 0.001914969677015377876386215 0.9860229469835553040013565
1.953300602260809260002361 -0.02481715913469908010857701 0.9819477007495389653257689
1.140185353623348163409901 0.004769694793118119460761939 1.020532827106544360162843
1.145092676811673815251424 0.02828838174979935587982638 1.026343684648110432533485
1.145092676811674259340634 -0.01874899216356312042774945 1.026343684648110432533485
1.133701156153358979850054 -0.04018535362334789418081726 1.01562550391821826423211
1.133701156153358979850054 0.04018535362334790805860507 1.01562550391821826423211
1.128793832965032883919321 -0.01666666666666665602702935 1.009814646376651747772257
1.122309635495043922404079 -0.01593102102661547725404034 1.004907323188325873886129
1.122309635495043922404079 0.01740231230671784867780616 1.004907323188325873886129
1.165636674975749187410656 -0.03194321191047340413593503 1.047579886886222277908587
1.161448507158540754957698 -0.003450104804695125482183471 1.045159773772444733452858
1.165636674975749187410656 0.02504300230108315317156809 1.047579886886222277908587
1.159028394044763210501969 -0.04515977377244494161967481 1.041631400949447838755191
1.159028394044763210501969 0.04515977377244494161967481 1.041631400949447838755191
1.152420113113777455637887 0.03326280189889638944089612 1.0356829150126736216464
1.154840226227555000093616 0.004769694793118112521868035 1.039211287835670294299462
1.152420113113777455637887 -0.02372341231266016439716005 1.0356829150126736216464
1.995589385032290774546482 -0.006629822197792813870398376 1.00942903720214594009974
1.997794692516145165228636 0.02229289616783144273304273 1.012242151952728264063808
1.997794692516145609317846 -0.03555254056341707047383949 1.012242151952728264063808
1.991105417673154187596651 -0.04558938503229092997770522 1.007223729718291327372981
1.991105417673154187596651 0.04558938503229092997770522 1.007223729718291327372981
1.988900110189299796914497 -0.01666666666666666990481716 1.004410614967709003408913
1.984416142830163209964667 -0.00112249798702486924990851 1.002205307483854390682154
1.984416142830163209964667 0.03221083534630846123558712 1.002205307483854390682154
2.038259139217902138341287 -0.00543867326112533900489554 1.043697812479027264842557
2.02858285089040935034177 0.01529028503026300979394936 1.037395624958054707320798
2.038259139217902138341287 0.03601924332165136466432642 1.043697812479027264842557
2.022280663369437014864616 -0.03739562495805501957102379 1.032049568046797816123217
2.022280663369437014864616 0.03739562495805501957102379 1.032049568046797816123217
2.006302187520971891387944 0.01409913609359554273470216 1.020401323614567923314667
2.012604375041944226865098 -0.0066298221977928121356749 1.025747380525825036556853
2.006302187520971891387944 -0.02735878048918116700605196 1.020401323614567923314667
1.19246521627034196555428 0.000484884152836114357566083 1.066110559139409108553309
1.196232608135170849550377 0.02628343375651164340323085 1.070918942684331520709407
1.196232608135171071594982 -0.02531366545083941002602934 1.070918942684331520709407
1.186174222399490219004292 -0.0424652162703422000888942 1.062343167274580224557212
1.186174222399490219004292 0.0424652162703421931500003 1.062343167274580224557212
1.182406830534661335008195 -0.01666666666666666990481716 1.057534783729657812401115
1.176115836663809144368997 -0.01098488853435293684246421 1.053767391864828706360413
1.176115836663809144368997 0.02234844479898039429355272 1.053767391864828706360413
1.223070653732355683729338 -0.02345157613601297347249997 1.096522229868368558669545
1.216751982063624781815747 0.002926216934057875897201573 1.093044459736737472610457
1.223070653732355683729338 0.02930401000412873394052049 1.096522229868368558669545
1.213274211931993473712055 -0.04304445973673752534605086 1.088431338611453469411572
1.213274211931993473712055 0.04304445973673751840715695 1.088431338611453469411572
1.203477770131631041650166 0.02686267722290697212983446 1.080340447354538158108994
1.206955540263262571798464 0.000484884152836110888119131 1.084953568479822161307879
1.203477770131631041650166 -0.0258929089172347422220799 1.080340447354538158108994
2.049521068551440894367488 -0.01533978197795740801290254 1.051142373792913531360682