# geometry NO_DATA 612
#  x  y  z
1.447557181571509143935828 0.04437620532787228677662483 0.8468190237563631983519485
1.445114363143018332280576 -0.01666666666666666296592325 0.8447452842354452595685643
1.447557181571509143935828 0.01104287199453894696699052 0.8468190237563630873296461
1.441671447867102884288215 0.009780836114835482486551399 0.845114363143018465507339
1.440671351019678247951106 -0.01866686036151621666534517 0.847557181571509166140288
1.440671351019678247951106 0.03822853259118718510789492 0.8475571815715092771625905
1.447362482037927167155544 -0.04511436314301836558726677 0.8469934031303538723989277
1.443919566762011719163183 -0.04511436314301836558726677 0.8473624820379269673153999
1.443919566762011719163183 0.04511436314301837252616068 0.8473624820379269673153999
1.447362482037927167155544 0.04511436314301837252616068 0.8469934031303539834212302
1.483390359125732027578692 0.01495667643498265093893185 0.8324213124250926520986127
1.491695179562865902767044 0.03168036889404807904258021 0.8399281635387831901340405
1.491695179562865902767044 -0.001767016024082764154290448 0.8399281635387831901340405
1.482743909488726252732249 -0.01676300061879336042447441 0.8326868836963274844720218
1.491096896901923374301191 -0.033390359125732099743189 0.8401848759936827448768781
1.474382063259193298421224 -0.03337264149306126692628993 0.8406796510182871218219702
1.474382063259193298421224 0.03337264149306125998739603 0.8406796510182871218219702
1.482743909488725808643039 0.01676300061879333613834575 0.8326868836963274844720218
1.491096896901923374301191 0.03339035912573208586540119 0.8401848759936827448768781
1.475037371712534906009751 -3.930815972794633413912868e-05 0.8249233201277373916937563
1.474989204736471437584555 5.702579239873331639135157e-05 0.8249321789440726693243278
1.466627358506938705318134 0.01592850885152056680804655 0.8329249462660324176965787
1.458313679253469441476909 0.03263448367791516729896628 0.8409088547716567774159557
1.458313679253469441476909 -0.0007774659748740180703618918 0.8409088547716565553713508
1.533422367737050651115283 0.01498923248622254303374923 0.8324055818393940597843539
1.541711183868525347762102 0.03174493355660647220251036 0.8399447152843639852193292
1.541711183868525347762102 -0.0017664685841613559941915 0.8399447152843639852193292
1.532506379421732845003135 -0.01684349721915260125748581 0.832417345018015453206317
1.540883610829450356405346 -0.03342236773705058172634352 0.8399558593355110902578531
1.524128528886540490105972 -0.033421129482102011898359 0.8399402004373653918278819
1.524128528886540490105972 0.03342112948210199802057119 0.8399402004373652808055795
1.532506379421732400913925 0.01684349721915256309356934 0.832417345018015453206317
1.540883610829450356405346 0.03342236773705057478744962 0.8399558593355110902578531
1.525045136329332695623862 -8.779614876870109113279894e-05 0.8248670675218985337551203
1.52495672105308988086847 8.903440371721521823071555e-05 0.8248676866493727111162571
1.516578870517897970060517 0.01495667643498264400003794 0.8323905420687226497378219
1.508289435258948874007956 0.03171113925041799119775021 0.8399127783605982999759476
1.508289435258948874007956 -0.001797786380452685199918261 0.8399127783605982999759476
1.594137686262399045133975 0.0380683510972758265555882 0.8439306648348763317812882
1.588275372524798445539318 -0.01666666666666619806003169 0.8381718618110369778406721
1.594137686262399045133975 0.004735017763942495419571266 0.8439306648348763317812882
1.579407364969029448076299 -0.001069348444870695316599729 0.8304767134139008355475653
1.576401671150861716341751 0.004942039191465600819763715 0.8285403680406038251504697
1.593995265059598764878501 -0.03827537252479849827491165 0.8438917543458375192244603
1.568603012039963662260789 -0.02267805430300300073565012 0.8355003100612794497692448
1.577328598392932379468334 -0.03827537252479849827491165 0.8431565479693770015501286
1.585127257503830211504692 0.02267805430300342400817826 0.8361966059487013769313535
1.574322904574764203644577 0.0344026817782044566640387 0.8412202025960798801307305
1.593995265059598986923106 0.03827537252479896318080321 0.8438917543458377412690652
1.557798659110897654400674 0.03272524759776035407909944 0.8405239067086580639909243
1.565597318221795486437031 0.01498923248622252742123795 0.8335639646879823283498467
1.557798659110897654400674 -0.002746782625315259771664467 0.8405239067086581750132268
1.601358598491681606290626 -0.04823212717429082446729538 0.8495907256659729345216192
1.601293210746881356953963 -0.01571734250901142548872969 0.8491814513319460022700014
1.601358598491681606290626 0.01679744215626786940642745 0.8495907256659729345216192
1.600883936412853980613136 -0.04918145133194595786108039 0.8494872149522112447783684
1.600883936412853980613136 0.04918145133194606888338285 0.8494872149522114668229733
1.60040927433402657698025 0.04897442990442291838038003 0.8493837042384498881020249
1.600818548668053509231868 0.01645964523914362695466984 0.8490779406181845345713555
1.60040927433402657698025 -0.01605513942613577549334281 0.8493837042384497770797225
1.297643586863651776752704 0.04441260537255166396253259 0.8967690185088997845141989
1.295287173727303731141092 -0.01666666666666666990481716 0.894849889549927723919609
1.297643586863651776752704 0.01107927203921832762234523 0.8967690185088997845141989
1.290568970660886716217419 0.007230260533832974859103082 0.8952871737273038199589337
1.288207180730818190994569 -0.02139024652680416443972788 0.8976435868636519765928483
1.288207180730817968949964 0.035850767594470117627381 0.8976435868636518655705459
1.297401506583161889807343 -0.04528717372730381440781855 0.8969642224057859936081627
1.29268330351674487488367 -0.04528717372730380053003074 0.8974015065831620896474874
1.29268330351674487488367 0.04528717372730381440781855 0.8974015065831620896474874
1.297401506583161889807343 0.04528717372730381440781855 0.8969642224057859936081627
1.3347329814832609162778 0.01233852533910094473323937 0.87976961451962287785733
1.342366490741630613570123 0.03040484015569502873610475 0.8866387012641370191090573
1.342366490741630613570123 -0.005727789477493136667540785 0.8866387012641371301313598
1.332783079948765658784282 -0.01866391590329383870505708 0.8813834317988380462338682
1.341415213825448926598938 -0.03473298148326074002989472 0.8878514950117383230931978
1.323749922540468748621834 -0.03393093442003309451182602 0.889979305029759082401597
1.323749922540468748621834 0.03393093442003310145071993 0.889979305029758860356992
1.332783079948765658784282 0.01866391590329384911339794 0.8813834317988378241892633
1.341415213825448926598938 0.03473298148326075390768253 0.8878514950117383230931978
1.326100847606577648463144 -0.0005976010866997578463780116 0.8733015513067226009980004
1.325102222988264077940812 0.001399648149927419735899514 0.8737025748383363543680957
1.316069065579966945733759 0.0157920983119145263984251 0.8822984480692573905358245
1.308034532789983384049037 0.03305636606528095794432787 0.8904932977685646733334579
1.308034532789983384049037 -0.001472169441451907099041585 0.8904932977685646733334579
1.390625748278753848197198 0.001718686492895205421629901 0.8685669283010272190281853
1.39531287413937699071198 0.0256777681049821376868536 0.873072479020184921694181
1.39531287413937699071198 -0.0222403951191917255425512 0.873072479020184921694181
1.383411125721010215272599 -0.02627831449906831151608344 0.8761187107755896708027876
1.392904075497834348595916 -0.04062574827875359978479608 0.8781376704655278198075052
1.37143158491496675033261 -0.03565256622031471450684492 0.8859341809178502558097534
1.37143158491496675033261 0.03565256622031472144573883 0.8859341809178502558097534
1.383411125721010215272599 0.02627831449906831498553039 0.8761187107755896708027876
1.392904075497834348595916 0.04062574827875359978479608 0.8781376704655279308298077
1.381132798501929714873881 -0.002319232886981379034019302 0.8665479686110888479788628
1.376326974585728724065348 0.007292414945420266914055674 0.8690345596403084016401408
1.364347433779685481169963 0.01233852533910094646796285 0.8788500297825688756248041
1.357173716889843007038507 0.03132442489274898933526714 0.8861789088956101290150968
1.357173716889843007038507 -0.006647374214547101603511869 0.8861789088956101290150968
1.426938946502462446375148 -0.04084485992592579162163702 0.8637151951117110204592109
1.413715195111711508957342 -0.04084485992592579162163702 0.8729078716914919766622916
1.413715195111711508957342 0.04084485992592579162163702 0.872907871691492087684594
1.426938946502462446375148 0.04084485992592579856053092 0.8637151951117112425038158
1.431025072818539634056378 -0.01439735714442363923026846 0.8545775700370370486780303
1.422378891464825656498761 0.009780836114835482486551399 0.859155140074074119560521
1.431025072818539634056378 0.03395902937409460420337126 0.8545775700370370486780303
1.409155140074074497036349 0.001718686492895205421629901 0.8683478166538549647412992
1.404577570037037315131556 0.02589687975215432952369454 0.8729629231965987390395867
1.404577570037037315131556 -0.02245950676636391390994518 0.8729629231965987390395867
1.637563693110194451563189 0.008813265328571226464582367 0.8751762728874243890686557
1.643781846555097292394976 0.02971029177209914134971669 0.8816980854401404998910152
1.643781846555097070350371 -0.01208376111495671617612757 0.8816980854401403888687128
1.627589841967258088573089 -0.03756369311019457785105757 0.868958119442521437214566
1.627589841967258088573089 0.03756369311019461254552709 0.8689581194425215482368685
1.621371688522355469785907 -0.01666666666666663867979459 0.8624363068898053263922066
1.611397837379418884751203 -0.02815364939881692674106262 0.8562181534449027076050243
1.611397837379418884751203 0.00517968393451640612967779 0.8562181534449027076050243
1.68067644007014327378613 0.01027614977120484829331559 0.8795997097010610499268068
1.685545332363475257153596 -0.0005383651845412064937748675 0.8850069671789341230194736
1.689266211095005632003563 0.007980122647602443108905135 0.8936094831045380271206113
1.688118197533204689619879 -0.01896269379026906815033371 0.8968047415522689691513847
1.688118197533204467575274 0.03492293908547396130703788 0.8968047415522689691513847
1.679168060928187822256064 -0.01329290805511569584229647 0.8786296957436467991442441
1.670565545002583807132623 -0.02942120953724115806071637 0.8833055110002030474447565
1.675794802876069855557262 -0.04360948310453817422516209 0.8928780408832210913061544
1.670565545002584251221833 0.02942120953724117887739808 0.8833055110002030474447565
1.675794802876070299646472 0.0436094831045381881029499 0.8928780408832213133507594
1.679168060928188044300668 0.01329290805511571665897819 0.8786296957436467991442441
1.674299168634856060933203 -0.002478393099369638995221887 0.8732224382657737260515773
1.672790789492900831447741 0.000538365184541229370440707 0.8722524243083595862913171
1.664188273567297038368906 0.008813265328571216056241511 0.8769282395649158345918295
1.657094136783648474775532 0.02795832509460752929308924 0.8825740687788862226526021
1.657094136783648252730927 -0.01033179443746511105839403 0.8825740687788862226526021
1.185768678507439499725251 0.01200743438496798889958406 0.9285683720183773859346843
1.192884339253719616635863 0.03110944622574099774348078 0.9357897617979145099553762
1.192884339253719616635863 -0.007094577455804993056098784 0.9357897617979147319999811
1.185574266289380673811138 -0.007354451832135678636392928 0.9429287181215162405578667
1.178394055962415531979559 0.0118363177442304540187834 0.9358574362430325255246544
1.185574266289380673811138 0.03102708732059661703162057 0.9429287181215162405578667
1.183337003726250280521981 -0.01993813522528918233400752 0.9309016585521440179107344
1.19208839875184180456813 -0.03576867850743967874871387 0.9373234374368861754334148
1.180857279684347505011033 -0.02002689296088233650294796 0.9333813825940469044439851
1.187193500248720834377991 -0.03585743624303283638710127 0.9421327776196385395124366
1.180857279684347282966428 0.02002689296088229140013759 0.9333813825940469044439851
1.187193500248720612333386 0.03585743624303280863152565 0.9421327776196384284901342
1.183337003726250280521981 0.01993813522528913723119715 0.9309016585521440179107344
1.19208839875184180456813 0.03576867850743965099313826 0.9373234374368860644111123
1.177017283481847975679102 -0.0008361233845161988604416381 0.9221465931336353394343064
1.175381549202536790588169 0.002435345174106290366822236 0.9229462040284304169546203
1.172901825160633793032616 0.002524102909699441933677466 0.925425928070333303487871
1.172057835398042202612601 -0.0008361233845162038477716315 0.9271060412174412235231102
1.241583564873781853066248 -5.018386905383115381695802e-05 0.9167246765250240958522454
1.245791782436890926533124 0.02486671433806144151934525 0.9208247003607216152332171
1.245791782436890926533124 -0.02496708207616918362425906 0.9208247003607216152332171
1.232877802046145276904099 -0.02792760359385227167394739 0.9246275705056966609518554
1.242716488072847180745839 -0.04158356487378193216963851 0.9261078312645381060974614
1.220419352942587742916203 -0.03634403872007033881041949 0.9347564034684050504608877
1.220419352942587742916203 0.03634403872007030411594997 0.9347564034684050504608877
1.232877802046145498948704 0.02792760359385232718509862 0.9246275705056966609518554
1.242716488072847180745839 0.04158356487378202237525926 0.9261078312645381060974614
1.231744878847079949224508 -0.003010705386736919203505281 0.9152444157661827617289418
1.226114410383487118849644 0.00825023154044865654477281 0.9178641788430385028974001
1.213655961279929584861748 0.01200743438496798196069015 0.9279930118057468924064324
1.206827980639964659204111 0.03168480643837165433573944 0.9355020816915993187024014
1.206827980639964659204111 -0.0076699376684356600566983 0.9355020816915994297247039
1.274335684020719616782458 -0.04172916429780291341922194 0.9123872204204697133889113
1.262387220420469802206753 -0.04172916429780291341922194 0.9206954618192759731698516
1.262387220420469580162148 0.04172916429780300362484269 0.9206954618192755290806417
1.274335684020719394737853 0.04172916429780300362484269 0.9123872204204693803220039
1.278032345051598017704464 -0.01783223709730327385947213 0.9041354178510984107575155
1.270219299302446813726419 0.007230260533833065064723833 0.9082708357021969103328729
1.278032345051598017704464 0.03229275816496932072219295 0.9041354178510984107575155
1.258270835702196999150715 -5.018386905382421492305411e-05 0.9165790771010031701138132
1.254135417851098388553055 0.02501231376208242623837563 0.9207519006487109303193961
1.254135417851098388553055 -0.02511268150019015446550164 0.9207519006487110413416985
1.696118944326269195599366 -0.008734745287653972178887329 0.9078470163632368361561475
1.698059472163134575595222 0.020717532371948746416912 0.9098724492158778431871724
1.698059472163134575595222 -0.03818702294725668383579276 0.9098724492158778431871724
1.693716200153602358113858 -0.04611894432626938156172258 0.905906488526371456160291
1.693716200153602358113858 0.04611894432626939543951039 0.905906488526371456160291
1.691775672316737200162606 -0.01666666666666666296592325 0.9038810556737304491292662
1.689372928144070584721703 0.004099066973871826231878845 0.9019405278368651801557121
1.689372928144070140632493 0.03743240030720516170470447 0.9019405278368651801557121
1.735442810283823078520982 0.01366563979605511791604044 0.929723342947537667591007
1.742721405141911539260491 0.03244178341321146685771737 0.9376109013208100417813284
1.742721405141911539260491 -0.005110503821101215413125196 0.937610901320809930759026
1.717143091552872480320957 -0.03115407102105356013099779 0.9150336146023830830031898
1.73166538858815455270701 -0.03544281028382301190760018 0.9280553982023591608196966
1.707755019744294333605694 -0.04571126073723054406006128 0.9117209804338008982682595
1.707755019744294777694904 0.04571126073723055793784908 0.9117209804338011203128644
1.717143091552872924410167 0.03115407102105355319210389 0.9150336146023831940254922
1.73166538858815499679622 0.03544281028382301190760018 0.9280553982023593828643016
1.720920513248541006134928 -0.01237792740389722680183215 0.9167015593475614787521977
1.713676811071347394488384 0.002109476950489666026433699 0.9115673341208576641037098
1.704288739262769247773122 -0.008734745287653975648334281 0.908254699952275590391082
1.702144369631384712704403 0.02030984878290990544580374 0.9100762910103972203046396
1.702144369631384712704403 -0.03777933935821785327302536 0.9100762910103972203046396
1.76176592943594845230848 -0.03353243597198644204704365 0.9452983654079348818655149
1.76293541660607155918683 -0.009602371822782892335501614 0.9405967308158699191622532
1.76176592943594845230848 0.01432769232642051339399192 0.9452983654079348818655149
1.758233782014006596483569 -0.04059673081587006349124636 0.943797851972628998318271
1.758233782014006596483569 0.04059673081587022308580615 0.9437978519726291093405735
1.754701634592064962703262 0.03759570394525868497481724 0.9422973385373234478379345
1.759403269184129925406523 0.01366563979605528098004719 0.9390962173805641466373118
1.754701634592064962703262 -0.01026442435314826699677138 0.9422973385373232257933296
1.191990284240310948860042 0.006350596808893235398207899 0.9643603125685823451718193
1.1839805684806217200844 -0.01666666666666663867979459 0.9701655826447571628889932
1.191990284240310948860042 -0.02698273652444010267670294 0.9643603125685823451718193
1.175598884558966439328742 -9.670117664419705335622501e-05 0.9756955857356102157496025
1.175226916396999943259516 0.0006472351472882952949997049 0.9754203187502881178261305
1.180974229853530843570297 -0.01784899499841206479966438 0.9667227376480820311144271
1.189575109779092754180851 -0.03398056848062157297984953 0.961508631737779784209863
1.175007720393093535449225 -0.001279029508389621736658137 0.9751044215697373118700853
1.175007720393093535449225 0.001279029508389704136023246 0.9751044215697373118700853
1.180974229853530843570297 0.01784899499841212378026256 0.9667227376480820311144271
1.189575109779092532136247 0.03398056848062160767431905 0.9615086317377796731875605
1.186568771152002099711353 -0.005365442106893344650919708 0.9580657867411046524352969
1.180383065687658161735385 0.01183631774423050606048768 0.9661315734822092382572123
1.186568771152001655622144 0.02903807759535433422048989 0.9580657867411046524352969
1.174416556227220853614313 9.670117664427961535165978e-05 0.9745132574038646300351729
1.174635752231127261424604 -0.0005350931844571294154072616 0.9748291545844153249689157
1.234060820166319683011125 -0.009468246694662488596727634 0.9935290668609826347790204
1.226736809791685978154874 0.01092322036063605485145533 0.9870581337219652695580407
1.23406082016631990505573 0.03131468741593457227878616 0.9935290668609826347790204
1.220265876652668612933894 -0.03705813372196518212797756 0.9797140810251183662415997
1.220265876652668390889289 0.03705813372196521682244708 0.9797140810251183662415997
1.206470933139017320812059 0.0094281620502368462810594 0.9658990951892542087264815
1.212941866278034463988433 -0.01096330500506167288099491 0.9732431478861010010206201
1.206470933139017320812059 -0.03135477206036021979862483 0.9658990951892542087264815
1.788405606284767745961517 0.007194896015770971438307857 0.9735251750564508643748241
1.794202803142384006207521 0.02893383563387218887497099 0.9796587595400537695766729
1.794202803142384006207521 -0.0145440436023302078344388 0.9796587595400536585543705
1.781068283897659032533056 -0.03840560628476787780050117 0.9677279781988348261734245
1.781068283897658810488451 0.03840560628476785004492555 0.967727978198834937195727
1.775271087040043216376262 -0.01666666666666670112983972 0.9615943937152320319938781
1.767933764652934280903196 -0.02119676553801519772179951 0.9557971968576159937924785
1.767933764652934058858591 0.01213656779531814035311132 0.9557971968576159937924785
1.830325583522432797423107 0.009473706239634723663689542 0.9791481227172017520743452
1.834768071440942449612521 -0.0005887304026156493525628877 0.9841793410383267159957654
1.837440698327839516679205 0.005933984176409932455309448 0.992807039572968008656062
1.835670837296226931556475 -0.02020638872989143769443032 0.9964035197864837822834261
1.835670837296227375645685 0.03207435708271118290912938 0.996403519786484004328031
1.82837376779328253384449 -0.01337733769793557521421423 0.9777850373906669112500367
1.819746069258641352206496 -0.02945527396198647368530388 0.9816768505998602067919023
1.824370511874688904896402 -0.04280703957296792122599882 0.9916676344610358961872976
1.819746069258641352206496 0.02945527396198657776871244 0.9816768505998603178142048
1.824370511874688904896402 0.04280703957296803918719519 0.991667634461036229254205
1.82837376779328253384449 0.01337733769793568797124017 0.9777850373906669112500367
1.823931279874773103699681 -0.003314901055685203282163975 0.9727538190695417252840116
1.821979464145622618076459 0.0005887304026157644948336056 0.9713907337430068844597031
1.81335176561098121439386 0.007194896015770985316095665 0.9752825469522001800015687
1.806675882805490518379088 0.02717646373812288018712024 0.9805374454879284273900453
1.806675882805490518379088 -0.01278667170658088353407678 0.9805374454879284273900453
1.235552077181967023378206 -0.01268842620472057300395896 1.016437043049005506389904
1.242776038590983400666801 0.006196984310580110240362917 1.011202201870962325003234
1.242776038590983400666801 -0.03157383672002123109479044 1.011202201870962102958629
1.239904315437967863289259 -0.03555207718196734534288339 1.009213081639989129101309
1.239904315437967863289259 0.03555207718196732452620168 1.009213081639989351145914
1.23268035402895170804527 -0.01666666666666669419094582 1.014447922818032532532584
1.237032592284952770000928 -0.003524702457396655056603985 1.007223961409016155243989
1.237032592284952770000928 0.02980863087593667998254077 1.007223961409016155243989
1.287658947370558859546463 -0.005311882309897335632808968 1.042970829680456290589063
1.279373229164594949480716 0.01396311038434870990809777 1.035941659360912536769206
1.287658947370558859546463 0.03323810307859476065317494 1.042970829680456290589063
1.272344058845051195660858 -0.03594165936091271718044737 1.028293283244762656991611
1.272344058845051195660858 0.03594165936091271718044737 1.028293283244762656991611
1.257029170319543531775253 0.006586566489525507231417301 1.013615736809069023394159
1.264058340639087063550505 -0.0126884262047205487178303 1.021264112925219125216358
1.257029170319543531775253 -0.03196341889896659599346052 1.013615736809069023394159
1.84507576888678070936578 -0.006551750415526682788658341 1.009981689238789392959461
1.847537884443390510114114 0.02185735180458699827843461 1.012577031807749161629317
1.847537884443390510114114 -0.03496085263564045753081899 1.012577031807749605718527
1.842171543198261929319415 -0.04507576888678034576773968 1.007519573682179592211128
1.84217154319826215136402 0.04507576888678044985114823 1.007519573682179370166523
1.839709427641652128571081 -0.01666666666666656929085555 1.004924231113219379452062
1.836805201953133348524716 0.001009753063190258317097237 1.002462115556609578703728
1.836805201953133570569321 0.03434308639652359357308242 1.002462115556609578703728
1.884916932709410186674859 0.01517535870186733498732323 1.031004079974856546542128
1.892458466354705048928508 0.03342562474461097804523391 1.039383559013828728367912
1.892458466354705048928508 -0.003074907340876315009481345 1.039383559013828506323307
1.870710434402868216352545 -0.02936185125983500898705358 1.019126835026791022542625
1.88459956034474718222782 -0.03491693270941030602383393 1.032270306986270202997957
1.861585301381496471151422 -0.04444491855042470573877722 1.01664275950706595175177
1.861585301381496693196027 0.04444491855042481676107968 1.016642759507066173796375
1.870710434402868216352545 0.02936185125983512000935605 1.01912683502679124458723
1.884599560344747404272425 0.03491693270941031990162173 1.032270306986270647087167
1.871027806767531220799583 -0.01111158521709136245969596 1.017860608015377366086796
1.864680214470947117177957 0.001583599376077084175395981 1.013096615094870145412642
1.855555081449575371976835 -0.006551750415526675849764437 1.010612539575145074621787
1.852777540724787730397338 0.02122650146823136518836606 1.012892456975927224505085
1.852777540724787730397338 -0.03433000229928481750185654 1.012892456975927224505085
1.905129099092253142089248 -0.043001319684589457692514 1.048130418776842320838227
1.905368921380862445857929 -0.0134071487975705797013326 1.046260837553685263401348
1.905129099092253142089248 0.01618702208944802767298654 1.048130418776842542882832
1.903499340157705166376445 -0.0462608375536852772791363 1.047384764794442535418284
1.903499340157705166376445 0.04626083755368554789599855 1.047384764794442979507494
1.901869581223157412708247 0.04476952958888620603961073 1.046639110812043194087551
1.903739162446314470145126 0.01517535870186759519584463 1.045515183571285477981405
1.901869581223157412708247 -0.01441881218515128106061329 1.046639110812042972042946
1.294881244375075901587024 -0.01508370501911905636749367 1.055910236448697414601838
1.29744062218753786197567 0.01313087268929032797037948 1.054142339460009569762633
1.297440622187538084020275 -0.04329828272752826029412532 1.054142339460009569762633
1.296088844046379140451108 -0.0448812443750760473037964 1.053350858636235676257797
1.296088844046378918406504 0.04488124437507588077034271 1.053350858636235898302402
1.293529466233916958017858 -0.0166666666666668329688239 1.055118755624923743141608
1.294737065905219974837337 0.008844354759424593107053347 1.052559377812461782752962
1.294737065905219974837337 0.04217768809275791730417637 1.052559377812461782752962
1.348720236473571754132195 0.04255435249951581427874103 1.093834116025943492545025
1.347440472947143863535757 -0.01666666666666694052167941 1.094997412723330398875987
1.348720236473571754132195 0.009221019166182477938553674 1.09383411602594371458963
1.338350975550288923798803 -0.001512328127043903458481822 1.089863303677332417862544
1.330541241679861652613681 0.0141071396138107100354242 1.083565897933948862785769
1.344279986515556135628913 -0.04744047294714432566609119 1.091836926291742448924538
1.322964072410050428985073 -0.0322861344075212816639997 1.075267881360867594509045
1.327613319848889972263351 -0.04744047294714432566609119 1.078404800672663643723581
1.335190489118700973847353 0.03228613440752099716934964 1.0867028172457446899557
1.319803585978462034944414 0.03484566146037695877346607 1.072107394929279866602201
1.344279986515555913584308 0.04744047294714404811033504 1.091836926291741782790723
1.307577169269811268037529 0.003095289774591405973502845 1.060672459044402993200151
1.315154338539622935755347 -0.01508370501911888636459302 1.06897047561748403943227
1.307577169269811490082134 -0.03326269981282917176379499 1.060672459044402771155546
1.356252069545790250870709 -0.04254415941315840832270823 1.098796228958948795195738
1.354931691334471555165919 -0.0116183681619274423862942 1.097592457917897501573634
1.356252069545790917004524 0.01930742308930380110587599 1.098796228958948351106528
1.35372792029342048358842 -0.04759245791789790125392301 1.096353168735134886446758
1.353727920293421149722235 0.04759245791789763757595466 1.096353168735134442357548
1.351203771041050938350736 0.04270633747026940374436066 1.093910108511320311563964
1.35240754208210223197284 0.01178054621903816198691395 1.095149397694083370780049
1.351203771041050716306131 -0.01914524503219280568422356 1.093910108511320755653173
1.93692046230761460989811 0.0103293854882508494286153 1.076577563769843814966976
1.943460231153807393766897 0.03058318112919881232025787 1.083535821001109900052484
1.943460231153807393766897 -0.00992441015269713427970899 1.083535821001109900052484
1.928423323421688539980323 -0.03692046230761462932701278 1.070037794923651031098188
1.928423323421688539980323 0.03692046230761465708258839 1.070037794923651031098188
1.921883554575495978156141 -0.01666666666666664908813544 1.063079537692385168057285
1.913386415689569908238354 -0.02648668648995619601116402 1.056539768846192384188498
1.913386415689569464149145 0.006846646843377140329023334 1.056539768846192384188498
1.977104846572301344309608 0.003727465226128783351566831 1.076622618653826357615344
1.978848022205746959301109 -0.000241113959237693284854559 1.078606908246509732407503
1.977857457686215791881068 -0.001740015079824911575778756 1.087060798559461805012916
1.975123717533239231514131 -0.02213414697262035962799231 1.093530399279730724870774
1.975123717533239231514131 0.0186541168129705364764348 1.093530399279730724870774
1.976342850729037481372075 -0.005251456912656580350295954 1.076101736769800254478469
1.967888960416085630811267 -0.02167700962008554943505345 1.081386986493544366538799
1.967660391739818326328759 -0.03706079855946211448758376 1.090361758690522764325692
1.967888960416085852855872 0.02167700962008556331284126 1.081386986493544366538799
1.967660391739818326328759 0.03706079855946212142647767 1.090361758690522764325692
1.976342850729037481372075 0.00525145691265659075863681 1.076101736769800254478469
1.974599675095591866380573 -0.001282877727290103984925107 1.074117447177116879686309
1.97383767925232800344304 0.0002411139592377036931954148 1.073596565293090776549434
1.965383788939376374926837 0.01032938548825083555082749 1.078881815016834888609765
1.957691894469688165258958 0.02827892988220761030793149 1.084687946624605325851576
1.957691894469688165258958 -0.007620158905705942675723463 1.084687946624605547896181
1.394047360509137023498738 0.01558135348663317390482952 1.121533992977496119181069
1.388094721018273691726108 -0.0166666666666666664353702 1.126838037252453572634181
1.394047360509137023498738 -0.01775197984670016590480479 1.121533992977496119181069