# geometry NO_DATA 524
#  x  y  z
3.849554254982453294076095 0.04684958095100928698872877 1.897295325968556101159379
3.849108509964906943423557 -0.01666666666666666296592325 1.897979045457958147125055
3.849554254982453294076095 0.01351624761767594717909446 1.897295325968556101159379
3.8478257682741738854304 0.0141011832852012998495983 1.899108509964906987832478
3.846988771600987622178991 -0.0183406600130388251768121 1.899554254982453560529621
3.846988771600988066268201 0.04654302658344142140656174 1.899554254982453560529621
3.848698220977805561915375 -0.04910850996490678799233365 1.897568756470857431750687
3.847415479287072948011428 -0.04910850996490678799233365 1.89869822097780627245811
3.847415479287072948011428 0.04910850996490680187012146 1.898698220977806494502715
3.848698220977806006004585 0.04910850996490679493122755 1.897568756470857653795292
3.892147958507964577989924 0.01428191588760140823266553 1.872133957379636948203938
3.88429591701592880070848 -0.01666666666666664561868849 1.874288916451765318882394
3.892147958507964577989924 -0.01905141744573192810752182 1.872133957379636948203938
3.872688057295640806643178 -0.006549052773909253173656442 1.87923711006955018731901
3.86893223906738814577011 0.000962583682595783752568297 1.882030344615207129166379
3.884909902416168847594236 -0.0342959170159290449575451 1.874902901852004699634335
3.86387343212100953238064 -0.02417830312317165858404522 1.885959687054637123893031
3.868243235749501796050254 -0.0342959170159290449575451 1.883780437909220006886812
3.873302042695880409439724 0.02417830312317172797298426 1.879851095469790012160161
3.864487417521249135177186 0.0398823861072426580354211 1.886573672454876504644972
3.884909902416168847594236 0.03429591701592907271312072 1.874902901852005143723545
3.855058806946378258118102 0.03762345709334515009292232 1.892682264039724060467051
3.860117613892756871507572 0.01440773765276920706512875 1.8887529216002940657404
3.855058806946378702207312 -0.00880798178780678626964562 1.892682264039724060467051
3.941658687267969973788695 -0.002239099039574975278515945 1.865555096545576718725101
3.945829343633985519801399 0.02275292156172770488553603 1.868598223993107154683457
3.945829343633985519801399 -0.02723111964087765804465313 1.868598223993107154683457
3.923614060690500338068887 -0.03349747850187003578303901 1.865288706755863445962973
3.936200122974117476815081 -0.04165868726796934790046478 1.868421886186359959225456
3.911118050389848832537609 -0.04183879123390069065813179 1.86777771649235124762356
3.911118050389848832537609 0.04183879123390069065813179 1.86777771649235124762356
3.923614060690500338068887 0.03349747850187004272193292 1.865288706755863445962973
3.936200122974117476815081 0.04165868726796934790046478 1.868421886186359737180851
3.9290726249843528350425 -0.008505457900567354317944435 1.862421917115080649551828
3.92065721906675124230901 0.008325353934636016764447852 1.862331865132115016336911
3.908161208766099736777733 -0.003347334461660995442999766 1.864820874868602373908288
3.904080604383049823979945 0.02182479010557303311657051 1.867399936588055808783793
3.904080604383049823979945 -0.02851945902889502226784657 1.867399936588055808783793
3.98282014781582249796088 -0.01071703215688917139314373 1.893537179972711870235003
3.976104303948843288196713 0.009690661121867857538680902 1.887074359945423829287847
3.98282014781582249796088 0.03009835440062487779688816 1.893537179972711870235003
3.969641483921555469294162 -0.03707435994542368495885398 1.884084297119591022706686
3.969641483921555469294162 0.03707435994542369189774789 1.884084297119591244751291
3.956462820027288884716654 0.01816859423918205235226608 1.87463141426647017517837
3.962925640054576703619205 -0.002239099039574967038579434 1.877621477092302981759531
3.956462820027288884716654 -0.02264679231833199857248928 1.87463141426647017517837
3.798337218560148276225163 0.03819470456763095211893955 1.939857486007483089451853
3.796674437120295841907591 -0.0166666666666666664353702 1.942434570843963648201225
3.798337218560148276225163 0.004861371234297616646113926 1.939857486007482645362643
3.791692785424801037663656 0.006703363275676931312685447 1.946674437120296197178959
3.788373915169158223648083 -0.02330440717795249222499265 1.948337218560148187407322
3.788373915169158667737292 0.0367111337293063583198105 1.948337218560148187407322
3.795271395228129396315353 -0.04667443712029609864666568 1.941031528951796980564382
3.790289743532634592071418 -0.04667443712029609170777178 1.945271395228129529542116
3.790289743532634592071418 0.04667443712029609170777178 1.945271395228129751586721
3.795271395228129396315353 0.04667443712029609864666568 1.941031528951797202608986
3.828760114430314054345672 -0.03814758149283386384764682 1.913376189454381037791109
3.813376189454380948973267 -0.03814758149283386384764682 1.925802989844714874223541
3.813376189454380948973267 0.03814758149283387078654073 1.925802989844714874223541
3.828760114430314054345672 0.03814758149283387078654073 1.913376189454381037791109
3.83669405920544992483201 -0.007379731540965904501572226 1.905926209253582914726621
3.827236343483099378914858 0.01410118328520129811487482 1.91185241850716569622648
3.83669405920544992483201 0.03558209811136849726187492 1.905926209253582914726621
3.811852418507164941274823 0.008186934114001526846537971 1.924279218897499754703517
3.80592620925358193773036 0.02966784894016872425881459 1.930779810034251031680697
3.80592620925358193773036 -0.01329398071216567230046213 1.930779810034250809636092
3.997691593781123930995136 -0.01002733541285247970131778 1.905628071845782978144257
3.998845796890562187542173 0.02099759170160498539248195 1.90779353436325238568827
3.998845796890562187542173 -0.0410522625273099447951175 1.907793534363252163643665
3.995357794118162164664909 -0.04769159378112412112082907 1.904473868736344943641825
3.995357794118162164664909 0.04769159378112414193751079 1.904473868736345387731035
3.994203591008724352207082 -0.01666666666666666296592325 1.902308406218875980187022
3.991869791345763474055275 0.007382254902991979353399365 1.90115420310943794568459
3.991869791345763474055275 0.0407155882363253174283102 1.901154203109438167729195
4.027173146286778582236821 -0.01768329196672537018120153 1.944856438253504293811602
4.021301915763132228676113 0.005362917873616306931039421 1.93971287650700840998752
4.027173146286778582236821 0.0284091277139579892474508 1.944856438253504293811602
4.016158354016637233030451 -0.03971287650700836002748417 1.931509437213744684314065
4.016158354016637233030451 0.03971287650700834614969637 1.931509437213744684314065
4.005143561746494995645662 0.01301887442748919307411448 1.918162436173985074816528
4.010287123492990879469744 -0.01002733541285249010965863 1.926365875467248800489983
4.005143561746494995645662 -0.03307354525319416982398479 1.918162436173985074816528
3.747025461743477059428642 0.02981158638448307487966993 1.982786124641005454094511
3.744050923486954562946494 -0.01666666666666666296592325 1.986931254935719204368638
3.747025461743477059428642 -0.003521746948850258858432216 1.982786124641005454094511
3.735394592435551608389233 -0.0006459954361391951910970066 1.994050923486955229080309
3.729712799640671594403329 -0.02803025225642764156619435 1.997025461743477503517852
3.729712799640671594403329 0.02673826138414924641351078 1.997025461743477503517852
3.742139723591626498944152 -0.04405092348695510695577582 1.985020055040390696277086
3.7334833925402239884761 -0.04405092348695510695577582 1.992139723591626720988756
3.733483392540223100297681 0.04405092348695510695577582 1.992139723591626720988756
3.742139723591626498944152 0.04405092348695510695577582 1.985020055040390696277086
3.772017579091285544024004 -0.04168529432917364441202324 1.960332564120114362538061
3.760332564120113296723957 -0.04168529432917364441202324 1.969879562235544945281163
3.760332564120113296723957 0.04168529432917364441202324 1.969879562235544945281163
3.772017579091285544024004 0.04168529432917364441202324 1.960332564120114362538061
3.777527382777756237430822 -0.01831526438683004145979716 1.954157352835413252734043
3.769999720641997953407554 0.006703363275676927843238495 1.958314705670826327832401
3.777527382777756237430822 0.03172199093818390408516805 1.954157352835413252734043
3.758314705670825706107507 0.002427329564194623950923457 1.967861703786256910575503
3.754157352835412631009149 0.02744595722670160192757649 1.973251349066274418220246
3.754157352835412631009149 -0.02259129809831234708683567 1.973251349066274418220246
4.045161144924023233215848 -0.003795159687509132295790693 1.961274608565556132333541
4.047580572462011971879292 0.02469931856984677182031973 1.965290934517146315130276
4.047580572462011971879292 -0.03228963794486503641190112 1.965290934517146315130276
4.041928698065486713630889 -0.04516114492402257402092758 1.958855181027567837759307
4.041928698065486713630889 0.04516114492402257402092758 1.958855181027567837759307
4.039509270527497974967446 -0.01666666666666667684371106 1.954838855075977654962571
4.036276823668961455382487 0.0005240627976388783932498727 1.952419427537988916299128
4.036276823668961455382487 0.03385739613097221711868201 1.952419427537988916299128
4.07293759403308364142049 -0.02320200881925335925637377 1.996139602852336825122848
4.067259392738035828074317 0.002410530218754226242788841 1.992279205704674094334905
4.07293759403308364142049 0.02802306925676180740514276 1.996139602852336825122848
4.063398995590373097286374 -0.04227920570467424976612847 1.985908689675249139128255
4.063398995590373985464794 0.04227920570467424976612847 1.985908689675249139128255
4.053860397147663441330678 0.02181737935049845450441452 1.975677776498161453133662
4.057720794295326172118621 -0.003795159687509129693705479 1.982048292527586186295707
4.053860397147663441330678 -0.02940769872551671562654896 1.975677776498161453133662
3.695461925923492430001716 0.02100104392230996153134726 2.025539117998818028354435
3.690923851846984238278537 -0.0166666666666666664353702 2.030962447884647303908423
3.695461925923492430001716 -0.01233228941102337307411663 2.025539117998818028354435
3.678938836113125887550268 -0.007303364801049020207934781 2.040923851846983883007169
3.671491894455776616723597 -0.03156054998136646749795631 2.045461925923492074730348
3.671491894455776616723597 0.0169538203792684374904276 2.045461925923491630641138
3.68912764460060671467545 -0.04092385184698411892956216 2.029166240638268892126916
3.677142628866748808036391 -0.04092385184698411892956216 2.039127644600606359404082
3.677142628866747919857971 0.04092385184698411892956216 2.039127644600606359404082
3.68912764460060671467545 0.04092385184698411892956216 2.029166240638268892126916
3.715388216208903138237929 -0.0444619116765042413086384 2.007377880593639751793944
3.707377880593639929429628 -0.0444619116765042413086384 2.01408314329796933606076
3.707377880593639929429628 0.0444619116765042413086384 2.01408314329796933606076
3.715388216208903138237929 0.0444619116765042413086384 2.007377880593639751793944
3.718789715392274874972145 -0.02844124044597677591905693 2.002769044161747835630649
3.713548423938759501794493 -0.0006459954361391951910970066 2.005538088323495671261298
3.718789715392274874972145 0.02714924957369838076637336 2.002769044161747835630649
3.705538088323495404807773 -0.003256141258007495299653389 2.012243351027825255528114
3.702769044161748013266333 0.0245391037518300839104235 2.016179569570407004164281
3.702769044161748013266333 -0.0310513862678450727750068 2.016179569570407004164281
4.094304800759402951371158 -0.002569435502802944366884663 2.012743814822528509722588
4.097152400379700409871475 0.02506869858993355376641787 2.016944830784162423498174
4.097152400379700409871475 -0.03020756959553945464325153 2.016944830784161979408964
4.090024332155744346550819 -0.044304800759403163701311 2.00989621520223060713306
4.090024332155745234729238 0.044304800759403163701311 2.00989621520223060713306
4.087176732535446888050501 -0.01666666666666665602702935 2.005695199240597137446684
4.082896263931789171408582 -0.003284669021842601122074257 2.002847599620298346678737
4.082896263931789171408582 0.03004866431149073174866615 2.002847599620298346678737
4.124440553833494504942792 -0.02156516687761133102552158 2.046005720711105979603417
4.118211695850087394887851 0.00377960787793459257813411 2.042011441422212580931728
4.124440553833494504942792 0.02912438263348051184498111 2.046005720711105979603417
4.114217416561193552126952 -0.04201144142221258787062155 2.036387669626370744424548
4.114217416561194440305371 0.04201144142221259480951545 2.036387669626371632602968
4.103994279288893487489531 0.02277533925274297099683452 2.026769618541636397424099
4.10798855857778733025043 -0.002569435502802950438416829 2.032393390337477789842069
4.103994279288892599311112 -0.02791421025834887881256208 2.026769618541636397424099
3.643867505975048715072262 0.0126725397988837074764179 2.068805033823834627071392
3.637735011950097518962366 -0.01666666666666666296592325 2.075203775874490563779773
3.643867505975048715072262 -0.02066079353444962365959903 2.068805033823834627071392
3.62370831465099563217791 -0.0113867279315379918425144 2.08773501195009725250884
3.61581411137684405332493 -0.03245507321496893249346272 2.093867505975048892707946
3.61581411137684405332493 0.009681617351892952277880866 2.093867505975048448618736
3.636570925416445554390066 -0.03773501195009761055576547 2.074039689340838599207473
3.6225442281173432235164 -0.03773501195009761055576547 2.08657092541644573202575
3.6225442281173432235164 0.03773501195009761055576547 2.08657092541644573202575
3.636570925416445554390066 0.03773501195009761055576547 2.074039689340838599207473
3.659271431799963725239877 -0.04670345229458815194956145 2.054589780867154491517113
3.654589780867154580334955 -0.04670345229458815194956145 2.058725211458214410242817
3.654589780867154580334955 0.04670345229458816582734926 2.058725211458214410242817
3.659271431799963725239877 0.04670345229458816582734926 2.054589780867154491517113
3.661011575718323474148974 -0.0373401504289705005179556 2.051648273852705539610497
3.657978198638220490579442 -0.007303364801049006330146973 2.053296547705411256856678
3.661011575718323474148974 0.02273342082687248091876775 2.051648273852705983699707
3.65329654770541178976373 -0.008395805484547222766189556 2.057431978296471175582383
3.651648273852706072517549 0.02164098014337426795217212 2.059919135034825377061907
3.651648273852705628428339 -0.03843259111246871695399818 2.059919135034824932972697
4.145149303517444039357542 -0.004527180367764002850983207 2.060920439632007106212086
4.147574651758721309136035 0.02395545648301334457075384 2.064564834540180360278327
4.147574651758721309136035 -0.03300981721854133466020897 2.064564834540180360278327
4.141131122364355654497103 -0.04514930351744401298974552 2.058495091390728948255173
4.141131122364354766318684 0.04514930351744400605085161 2.058495091390729392344383
4.138705774123077496540191 -0.01666666666666668031315801 2.054850696482555694188932
4.134687592969989111679752 -0.001071088604621411952827481 2.052425348241277980321229
4.134687592969989111679752 0.03226224472871191961687032 2.052425348241277980321229
4.176621592514523584327435 -0.01872513302095327528129509 2.095346725535476739565866
4.170290707954045217320527 0.005301651383334543901626468 2.090693451070953834403099
4.176621592514523584327435 0.02932843578762236308454803 2.095346725535476739565866
4.16563743348952186806855 -0.04069345107095448388356829 2.084749802018261544134248
4.16563743348952275624697 0.04069345107095448388356829 2.084749802018261544134248
4.154653274464521928166505 0.01949960403652382934236442 2.07415287850104634870263
4.159306548929044389240062 -0.004527180367763988973195399 2.080096527553738638971481
4.154653274464521928166505 -0.02855396477205180555403174 2.07415287850104634870263
3.593306992728376947354718 0.008825072685537250008480648 2.115518079957159791604226
3.586613985456755138159224 -0.01666666666666666990481716 2.122719529071146027376926
3.593306992728376947354718 -0.02450826064779608806643019 2.115518079957159791604226
3.575653236214291652572683 -0.005254831818259475539889536 2.13661398545675451643433
3.571385494243450864360057 -0.02520215060834776754639108 2.143306992728377213808244
3.571385494243450864360057 0.01469248697182881993605896 2.143306992728377213808244
3.58612159677588504536061 -0.0366139854567549619113187 2.122227140390276822756732
3.575160847533422003863279 -0.0366139854567549619113187 2.136121596775885311814136
3.575160847533422447952489 0.0366139854567549549724248 2.136121596775885755903346
3.58612159677588593353903 0.0366139854567549619113187 2.122227140390276822756732
3.605418531164830575619362 -0.04804116456496216464033822 2.102778561797267187216676
3.602778561797266299038256 -0.04804116456496216464033822 2.105550772078324417435624
3.602778561797266299038256 0.04804116456496216464033822 2.105550772078324417435624
3.605418531164830575619362 0.04804116456496216464033822 2.102778561797267187216676
3.606259356452647502067066 -0.04276122582983349351692937 2.100979417717518948904853
3.604598804802601641483761 -0.0113867279315379918425144 2.101958835435038253081075
3.606259356452647502067066 0.01998776996675750636245361 2.100979417717518948904853
3.601958835435037364902655 -0.01112224610455104373274438 2.104731045716095927389233
3.600979417717518504815644 0.02025225179374445447222364 2.10652383827963429752117
3.600979417717518504815644 -0.04249674400284653846826544 2.10652383827963429752117
4.195580197505021757820032 -0.001954358530088702756988273 2.111775956563266110066479
4.197790098752511411817068 0.02695917230826700219936676 2.116922209384066277948477
4.197790098752511411817068 -0.03086788936844440944806678 2.116922209384066277948477
4.192107591110844744264341 -0.04558019750502237399381045 2.109566055315777344247863
4.192107591110844744264341 0.04558019750502237399381045 2.109566055315777344247863
4.189897689863355978445725 -0.01666666666666666296592325 2.104419802494977176365865
4.186425083469178964890034 0.0008818488883569133851558774 2.102209901247488410547248
4.186425083469178964890034 0.03421518222169024625589628 2.102209901247488410547248
4.216086175424152315827087 -0.03026535671326284829274478 2.146351532137414697132272
4.213515789505953179627795 -0.004228959105099927909265922 2.142703064274829038993175
4.216086175424152315827087 0.02180743850306299247421293 2.146351532137414697132272
4.209867321643368853756328 -0.04270306427482958855357253 2.137041019539037023378114
4.209867321643368853756328 0.04270306427482959549246644 2.137041019539037023378114
4.20364846786258539168557 0.0240820390780742202285758 2.127730506940658905534747
4.207296935725169717557037 -0.001954358530088702756988273 2.133392551676451365239018
4.20364846786258539168557 -0.02799075613825162747727582 2.127730506940658905534747
3.556724400074537051352763 -0.04176824918422571142340161 2.198492649258763975694819
3.555623226149121851591417 -0.01144961733336409895334107 2.196985298517527773753955
3.556724400074537051352763 0.01886901451749751351671947 2.198492649258763975694819
3.563321748881712824896795 -0.04450891417319721710121883 2.157615831457509791846405
3.559123182198745016791008 -0.041494212690725493231092 2.172775147382940641449522
3.558986163951994630139097 -0.04698529851752827890543074 2.186696271136205904639382
3.559123182198745016791008 0.0414942126907254862921981 2.172775147382940641449522
3.558986163951995074228307 0.04698529851752826502764293 2.186696271136205460550173
3.563321748881713268986005 0.04450891417319720322343102 2.157615831457510235935615
3.564157377761807854454901 -0.0330970793247900157973973 2.15274554291340125544707
3.561197003251005188673162 -0.005254831818259483346145178 2.155491085826802155622772
3.564157377761807854454901 0.02258741568827106818706518 2.15274554291340125544707
3.556998436568037824656585 0.01365196518419493562634948 2.170650401752233449315099
3.555760244395872238243328 -0.01117558083986388769992537 2.183064174764262510564095
4.227583982692349806598031 0.00193256143613592897868847 2.174348578743782844924226
4.227741412423275946252943 -0.001617701974283877134480614 2.176123710448992998323092
4.227129667984161898175444 0.0003942130960524287347848671 2.18526589476946853096706
4.226360493814119934086193 -0.0182050150067501678718962 2.192632947384733910212162
4.226360493814119934086193 0.01899344119885502946143419 2.192632947384733910212162
4.225453779533720144456765 -0.02021693007708647710218841 2.173836077559436752437705
4.222373019263103266496273 -0.03495103530761720783681668 2.164536463508035968317245
4.224842035094605208200846 -0.03526589476946926510203539 2.182978261879912285081673
4.224842035094605208200846 0.03526589476946926510203539 2.182978261879912285081673
4.224660652152659068292451 0.02021693007708647016329451 2.166824096397592214202632
4.222530448994029406151185 0.03526589476946926510203539 2.166311595213246121716111
4.224503222421732928637539 -0.01666666666666666990481716 2.165048964692382060803766
4.221579891882041302153539 -0.01927792379748272111328333 2.157524482346190985992962
4.221579891882041302153539 0.01405540953585060828801012 2.157524482346190985992962
3.575568857065354322344319 -0.01971522437092839558081536 2.245284081436282885846367
3.569858306378251633361742 0.004186271834971527772140121 2.240568162872565771692734
3.575568857065354322344319 0.02808776804087144765564865 2.245284081436282885846367
3.559961492342175404246518 -0.04565958350947425109511713 2.207352967675524357815675
3.56206888623924067260873 -0.0362277463820408415773322 2.219303715778474295206024
3.570325147244796770706898 -0.04056816287256658631887873 2.233800174199878085801174
3.56206888623924067260873 0.0362277463820408346384383 2.219303715778473851116814
3.570325147244796770706898 0.04056816287256659325777264 2.233800174199878085801174
3.559961492342175404246518 0.04565958350947425109511713 2.207352967675524357815675
3.55738725757856411036073 -0.04044253417617167667419409 2.202170208245262550406096
3.556948941157175969607351 -0.01144961733336409548389412 2.204340416490524923176508
3.55738725757856499853915 0.01754329950944348570640585 2.202170208245262550406096
3.559056335054241237969563 0.007234829539233255182861804 2.216291164593474860566857
3.561602045372695091174364 -0.0123262501761409199591002 2.226071704451161981097584
4.217511428117028948747702 -0.02561107510917497859237457 2.243122503226203434678609
4.219071959219208522995359 -0.006032735323434579473300676 2.236245006452406869357219
4.217511428117028948747702 0.0135456044623058213804967 2.243122503226203434678609
4.223174266125164777463397 -0.03523120359739050078129452 2.214643826243805513342977
4.221521323017602078664368 -0.02147621004979756789698975 2.224432996136675555476359
4.21945389048791330566246 -0.03624500645240706642180584 2.233715264602037731123119
4.221521323017602078664368 0.02147621004979756789698975 2.224432996136675555476359
4.21945389048791330566246 0.03624500645240706642180584 2.233715264602037731123119
4.223174266125164777463397 0.03523120359739050078129452 2.214643826243805513342977
4.224445277964023581773745 -0.01817032383467140355115532 2.207384398201304165354486
4.223299236283968305372127 0.0003942130960524313368700811 2.214768796402609041251708
4.224445277964023581773745 0.01895875002677626514069331 2.207384398201304165354486
4.221646293176403830216259 0.002911673119073730948980216 2.224557966295478639295879
4.221139391748896407818847 -0.001897870264057166175830638 2.226962737987044249621249
3.594564407509395209672221 -0.003269962252411118437678272 2.26213394469773199091378
3.597282203754697427200426 0.02462777859031785657184521 2.266114500659557773332153
3.597282203754696983111216 -0.03116770309514008824303133 2.266114500659557773332153
3.591042006338849734703444 -0.0445644075093956440469789 2.259416148452430217474785
3.591042006338850178792654 0.0445644075093956440469789 2.259416148452429773385575
3.588324210093547073086029 -0.0166666666666666664353702 2.255435592490604435056412
3.584801808923002486295672 -0.001249320655632833124842884 2.252717796245302217528206
3.584801808923002486295672 0.03208401267770050191430187 2.252717796245302217528206
3.624517661888579045381675 -0.02151304279651908291093321 2.296030704685098289274947
3.618212773916641644689207 0.003881699907010944389229579 2.292061409370196756185578
3.624517661888579045381675 0.02927644261054095781160456 2.296030704685098289274947
3.614243478601740111599838 -0.04206140937019667985774518 2.286062390225559681766754
3.614243478601740111599838 0.04206140937019668679663909 2.286062390225559237677544
3.603969295314901177818001 0.02212478045111890972984625 2.276094075766020630169351
3.60793859062980271090737 -0.003269962252411107161975679 2.282093094910657704588175
3.603969295314901177818001 -0.02866470495594113446213846 2.276094075766020630169351
4.199102797922991570089835 0.04005998294057350195274125 2.290957185017581831942834
4.198205595845983850722405 -0.01666666666666666990481716 2.294132789393279026057826
4.199102797922991570089835 0.006726649607240163877830419 2.290957185017581831942834
4.196339318922921890475664 0.01293411282054584068856862 2.298205595845983939540247
4.195370244076870314131611 -0.01860481635877129016898301 2.299102797922992102996886
4.195370244076870314131611 0.0444730419998629750155672 2.299102797922992102996886
4.197584181978784023669959 -0.04820559584598380076236879 2.29351137552607919900538
4.195717905055723839780057 -0.04820559584598380076236879 2.297584181978784556577011
4.195717905055723839780057 0.04820559584598378688458098 2.297584181978785000666221
4.197584181978784023669959 0.04820559584598380076236879 2.29351137552607919900538
4.212643782843080941802327 -0.04391276861671802866915471 2.25732681717146377309291
4.207326817171463950728594 -0.04391276861671802866915471 2.269920677385425467065261
4.207326817171463950728594 0.0439127686167180147913669 2.269920677385425467065261
4.212643782843080941802327 0.04391276861671802866915471 2.25732681717146377309291
4.213677547034873960285495 -0.03327883727348593390082954 2.253043615691640688680764
4.211404197054898546070945 -0.006032735323434579473300676 2.256087231383281821450737
4.213677547034873960285495 0.02121336662661677668895166 2.253043615691640688680764
4.206087231383282443175631 0.008521053761256367625742669 2.268681091597243515423088
4.203043615691640866316448 0.03576715571130772292063327 2.278231336119564076625466
4.203043615691640866316448 -0.01872504818879498766914793 2.278231336119564076625466
3.64526463078467877210187 -0.004897026939510414414447048 2.310620189078899766599307
3.647632315392339563686619 0.0237009371785014480438214 2.31413732433481689199084
3.647632315392339563686619 -0.03349499105752228034216245 2.31413732433481733608005
3.641239832012511445924474 -0.04526463078467853062836213 2.308252504471238975014558
3.641239832012511445924474 0.04526463078467853062836213 2.308252504471238975014558
3.638872147404850654339725 -0.01666666666666666296592325 2.304735369215321405533814
3.634847348632683328162329 -0.0008536693083105335042373718 2.302367684607660613949065
3.634847348632683328162329 0.03247966402502279470443369 2.302367684607660613949065
3.677771749873587570078826 -0.01744996675323404883295453 2.345221716626821439888317
3.671053299996561491980174 0.006326799833741966229416764 2.340443433253641902780373
3.677771749873587570078826 0.03010356642071800037374629 2.345221716626820995799108
3.666275016623382843050649 -0.04044343325364269797761452 2.334439869823732749409828
3.666275016623382843050649 0.04044343325364267716093281 2.334439869823732749409828
3.654778283373178560111683 0.01887973964746559457639208 2.323658023020644058931339
3.659556566746357209041207 -0.004897026939510434363767022 2.329661586450553656391094
3.654778283373178560111683 -0.02867379352648644769141484 2.323658023020644058931339
4.188834099814937594885578 0.00472442544845727042945871 2.315890325633519708503627
4.185460368993810575943826 -0.01147188709070917286836355 2.323988481903102698566954
4.17849303959700879573802 -0.002462771702895696392110469 2.338057758781790784752275
4.174899441021333146295547 -0.02385386381801962718540722 2.344028879390894992695848
4.174899441021332258117127 0.01892832041222823613590975 2.344028879390894992695848
4.184546336760831763967872 -0.03286297920583310105957509 2.32307444967012344250179
4.188651180446876232110753 -0.04480522042404250920855091 2.312378903612561487079802
4.177579007364029095583646 -0.03805775878179060156547564 2.337143726548810640508691
4.177579007364029095583646 0.03805775878179058768768783 2.337143726548810640508691
4.189565212679855932265127 0.03286297920583310105957509 2.313292935845540743144966
4.185277449625749213169001 0.03805775878179058768768783 2.320477059882144477143129
4.192938943500982063028459 -0.01666666666666666296592325 2.305194779575957753081639
4.193670056365900400408009 0.007739333244588350591008918 2.302597389787978787722977
4.193670056365900400408009 0.04107266657792167652285542 2.302597389787978787722977
3.696085618290288365983542 -0.006341941857940569526874697 2.359076744114075641078898
3.698042809145143827720403 0.02307700976568016759671309 2.362281915663582587683322
3.698042809145144715898823 -0.03576089348156129277267468 2.362281915663582587683322
3.692872875728681947293808 -0.04608561829028740702840494 2.357119553259219735252827
3.692872875728681947293808 0.04608561829028740008951104 2.357119553259219291163618
3.690915684873825597378527 -0.01666666666666667684371106 2.353914381709713232737613
3.687702942312219622778002 0.002412418124029370482264145 2.351957190854856438733123
3.687702942312219622778002 0.03574575145736270942453672 2.351957190854856438733123
3.72633857878970120580675 -0.01875380750700533782904245 2.395092386296706621351404
3.720530709949790626467347 0.004764298419741094456347774 2.390184772593412887431441
3.72633857878970120580675 0.02828240434648750939450323 2.395092386296706621351404