# geometry NO_DATA 436
#  x  y  z
3.843920395758980479428146 0.03558546218786289017099733 1.991665066428882413518409
3.837840791517960870038451 -0.01666666666666668031315801 1.986713126852911681652358
3.843920395758980479428146 0.002252128854529553830809974 1.991665066428882413518409
3.835997309761064677502418 0.01297970315287496831380132 1.987840791517960781220609
3.840233432245188538445291 -0.008194421698419147512271188 1.993920395758980390610304
3.840233432245188982534501 0.0341538280041690928134912 1.993920395758980390610304
3.843626686406041770283082 -0.03784079151796079787395399 1.99249902174099258189699
3.841783204649145577747049 -0.03784079151796079787395399 1.993626686406041459420635
3.841783204649145577747049 0.03784079151796078399616619 1.993626686406041459420635
3.843626686406041770283082 0.03784079151796078399616619 1.99249902174099258189699
3.89625267578093925635585 -0.009201737184895093790704124 1.957479788959947342164014
3.898126337890469361724399 0.02038427192937709853115535 1.959338591591302192185253
3.898126337890469805813609 -0.03878774629916729305145751 1.959338591591302192185253
3.887413572890761059852593 -0.03116739846419776943653446 1.974494230443155196041971
3.896537600899057096626166 -0.04625267578093886222667663 1.970684056525670246884374
3.87262056833362411367716 -0.03491472268325891692430929 1.988159570335242154470734
3.87262056833362500185558 0.0349147226832589308020971 1.988159570335242154470734
3.887413572890761059852593 0.03116739846419779372266312 1.974494230443155196041971
3.896537600899057096626166 0.04625267578093886916557054 1.970684056525670690973584
3.887128647772642331403858 -0.00158138934992557234418542 1.961289962877431847232401
3.879878281873877288177255 0.01291934244760555017261794 1.966958939426271424366632
3.865085277316740786091032 0.01441133733656879689633001 1.98062427931835860484
3.857542638658370215409832 0.03265939335316103697692824 1.988620642661605986134532
3.857542638658370215409832 -0.003836718680023470939843833 1.988620642661605986134532
3.940023764167373432343311 0.003903906993006948326213612 1.970261522662464237498625
3.945011882083687027034102 0.02726100449371275658005942 1.975558691575987069199982
3.945011882083687027034102 -0.01945319050769896140895554 1.975558691575987069199982
3.917557310627977074091177 -0.0362589678187788116980883 1.960866879793937700426909
3.932341579120347319076245 -0.04002376416737248032706731 1.969269768449477320260144
3.905878761877624061327197 -0.04623520365140633414657856 1.959611226618509505215115
3.905878761877623617237987 0.04623520365140634802436637 1.959611226618509505215115
3.917557310627977074091177 0.03625896781877892272039077 1.960866879793937478382304
3.932341579120347319076245 0.04002376416737257053268806 1.969269768449477320260144
3.925239495675003187358243 -0.01290187031807290066187655 1.961858634006924173576181
3.915443345098946537063966 0.006690430834039256743905888 1.958752914264907163399698
3.903764796348593524299986 -0.009201737184895083382363268 1.957497261089479412277115
3.901882398174296717741072 0.02036679979984458432884509 1.959347327656068671331013
3.901882398174297605919492 -0.03877027416963476497135943 1.959347327656068671331013
3.976849602431134833580018 0.002717120072712314420015911 1.975867517641578752218834
3.977962641270102128743247 -0.0004910423947777480544255035 1.977471598875323532951143
3.972910113185378122580005 -0.009614013774670254405818604 1.986050453406045690485371
3.966744546261685933075114 -0.02899780051404919969937346 1.993025226703022401153476
3.966744546261685933075114 0.009769772964708659662713686 1.993025226703022845242685
3.974016566079962675672732 -0.008383192775055751597146347 1.973525523685184746014443
3.965437711549240518138504 -0.02455881704694463929516957 1.975722998379076722486047
3.963218219815687781704128 -0.03605045340604558223862597 1.986643846866192664180062
3.965437711549240962227714 0.02455881704694474337857812 1.975722998379076722486047
3.963218219815687781704128 0.03605045340604560305530768 1.986643846866192664180062
3.974016566079962675672732 0.008383192775055895579194853 1.973525523685184523969838
3.972903527240995380509503 -0.005175030307565688797444281 1.971921442451439521192924
3.970070490889823666691427 0.0004910423947778920364740096 1.969579448495045514988533
3.961491636359101509157199 0.003903906993006928810574507 1.971776923188937491460138
3.955745818179551065441046 0.02574560396723931179896461 1.976316391839223918225343
3.955745818179551065441046 -0.01793778998122554091398939 1.976316391839223918225343
3.784872844392254798151498 0.01202132979959846109663246 2.029471153840876507246094
3.792436422196127754347117 0.030227507525187630177399 2.0362515742701372545298
3.792436422196127754347117 -0.006184847925990707984134076 2.0362515742701372545298
3.782154610838295738517445 -0.01091315266625587226956284 2.043067763504551326292358
3.776475660162320835411265 0.008555707676180100695884079 2.036135527009102830220399
3.782154610838295738517445 0.02802456801861607019188405 2.043067763504551326292358
3.78346871376221338678647 -0.01851204750898783474299947 2.031929202703291359455307
3.791954981987246675601 -0.03487284439225583898558369 2.038092802494790412026759
3.781297861394867787510066 -0.01977473012583463862767985 2.034100055070637402820921
3.785728650124657868047962 -0.03613552700910264287026408 2.042586323295670247546241
3.781297861394867787510066 0.01977473012583463862767985 2.034100055070637402820921
3.785728650124657868047962 0.03613552700910263593137017 2.042586323295670247546241
3.78346871376221338678647 0.01851204750898783474299947 2.031929202703291359455307
3.791954981987246675601 0.03487284439225583898558369 2.038092802494790412026759
3.776386576167222841604598 -0.0003058697833986656622329292 2.023307554049377454674641
3.775463885746062064896478 0.001539511058922499392789818 2.023924374687139149386894
3.773293033378716021530863 0.002802193675769302193268029 2.026095227054485192752509
3.772044871432530754873369 -0.0003058697833986656622329292 2.02764925878406954140587
3.835974564584374579823134 -0.03589803549508080449115255 2.021151379674603454361659
3.821151379674603720815185 -0.03589803549508080449115255 2.035495377907736269662564
3.821151379674603276725975 0.03589803549508083224672816 2.035495377907736713751774
3.835974564584374579823134 0.03589803549508083224672816 2.021151379674603898450869
3.836697352072000910538918 -0.006251665675539161068363647 2.007050982252459370158704
3.828925149414688977600463 0.01297970315287500127354736 2.014101964504919184406617
3.836697352072000910538918 0.03221107198128914106405318 2.007050982252459370158704
3.814101964504918562681723 0.01202132979959848538276113 2.028445962738051555618313
3.80705098225245919252302 0.03125269862801262343854347 2.035738978718724556671305
3.80705098225245919252302 -0.007210039028815678693873359 2.035738978718725000760514
3.987109181655218215212244 0.01144312367417646587874902 2.026945713515202918131308
3.993554590827609107606122 0.03188563866272848407179552 2.034555199513234047259402
3.993554590827609107606122 -0.008999391314375521089274912 2.034555199513234047259402
3.980414250606941095611546 -0.03710918165521868289369323 2.02050030434281246982664
3.980414250606941095611546 0.03710918165521864819922371 2.02050030434281246982664
3.973968841434550203217668 -0.01666666666666669766039277 2.012890818344781340698546
3.96727391038627263952776 -0.0225048321194516350030046 2.006445409172390448304668
3.96727391038627263952776 0.01082850121388169613301233 2.006445409172390448304668
4.009330541163273586846572 -0.03566852473702045167591734 2.044999065900294343833821
4.012166671731195677352844 -0.01233705960309859975265745 2.039998131800588421214115
4.009330541163273586846572 0.01099440553082332329426496 2.044999065900294343833821
4.007165737631488866554719 -0.03999813180058859468646304 2.042387294404049313811811
4.007165737631489754733138 0.0399981318005885183586301 2.042387294404049313811811
4.005000934099705034441286 0.03477458880809834729230801 2.039775522907803839700591
4.010001868199410957060991 0.01144312367417642598010907 2.037386360304343391192106
4.005000934099705034441286 -0.0118883414597454276778743 2.039775522907804283789801
3.737307524649957191087424 0.008035419240231836401910925 2.075043518303491651977311
3.743653762324978373499107 0.02867627722352281832707277 2.081048323581919490266046
3.743653762324978373499107 -0.01260543874305916287048568 2.081048323581919490266046
3.722851084551233924457847 -0.02239826797429717367138302 2.095249352525530905921869
3.718551513487319937212305 0.001433770410098827302602942 2.090498705051062167115106
3.722851084551233924457847 0.02526580879449481092935414 2.095249352525530905921869
3.734335485165535928331337 -0.02125216629481848154559209 2.080361293848911330428564
3.742974472654633011359238 -0.037307524649957651829979 2.08468465762479127079132
3.728765703648358798005802 -0.02444334669592348324718145 2.085931075366088460754099
3.729788243009171999631235 -0.04049870505106265700101531 2.094570062855185543782
3.728765703648359242095012 0.02444334669592351100275707 2.085931075366088460754099
3.729788243009171999631235 0.04049870505106266393990921 2.094570062855185543782
3.734335485165536372420547 0.02125216629481851970950856 2.080361293848911330428564
3.742974472654633011359238 0.03730752464995766570776681 2.08468465762479127079132
3.728668537160860552148733 -0.0006113083115274822731954885 2.070720154527611711614554
3.726375787346784207443307 0.003974191316624356255793327 2.072401596030159609540533
3.720806005829607077117771 0.007165371717729353620573995 2.077971377547336739866068
3.717528974126506291497662 -0.0006113083115274880194670026 2.081859717561965084087205
3.780973179277654416807763 -0.03775847242821627619546732 2.068361992106231284083151
3.768361992106231017629625 -0.03775847242821627619546732 2.080713035059680304783569
3.768361992106231017629625 0.03775847242821626925657341 2.080713035059680304783569
3.780973179277654416807763 0.03775847242821627619546732 2.068361992106231284083151
3.781343138128738790015859 -0.01253609808536951253365999 2.056120763785891814023898
3.774852714743206938408093 0.008555707676180097226437127 2.062241527571783361594271
3.781343138128738790015859 0.02964751343772971392542814 2.056120763785891814023898
3.762241527571783539229955 0.008035419240231819054676166 2.074592570525232382294689
3.756120763785891547570372 0.02912722500178142187587937 2.080822849692789855424735
3.756120763785891547570372 -0.013056386521317787235974 2.080822849692789855424735
4.036380899958057710819048 0.01239401886811392940190846 2.078149442809332558823598
4.043190449979029210680892 0.03210825215950502409256728 2.085870235555751683875769
4.043190449979029210680892 -0.00732021442327716008457994 2.085870235555751239786559
4.028688586844145547161133 -0.03638089995805775939130555 2.071339892788361058961755
4.028688586844146435339553 0.03638089995805776633019946 2.071339892788361503050965
4.021879036823175823656129 -0.0166666666666666664353702 2.063619100041942377998794
4.014186723709263659998214 -0.02595615964504077721741737 2.05680955002097132222616
4.014186723709263659998214 0.007377173688292566061663891 2.05680955002097132222616
4.060098114225274557043122 -0.03494693173646798434184291 2.095045045961742236073633
4.062481488170023524730823 -0.01152350647964956766033939 2.090090091923484827418633
4.060098114225274557043122 0.01189991877716879177528941 2.095045045961742236073633
4.057526534131765671986614 -0.04009009192348502587099901 2.092908722062465365354456
4.057526534131765671986614 0.04009009192348508832104415 2.092908722062465809443665
4.054954954038257675108525 0.03581744412493235302230588 2.090772398163189382813698
4.059909908076514639674315 0.01239401886811399011723012 2.087953768024208400788666
4.054954954038257675108525 -0.01102940638870442829899687 2.090772398163189382813698
3.690865126624394143561858 0.001264335805489155088038311 2.118100374611683101022663
3.695432563312197160598771 0.02546279576321688886686445 2.122498439159958394384375
3.695432563312197160598771 -0.02293412415223856914980871 2.122498439159958394384375
3.66690003427675748071124 -0.02965398740498222107664361 2.146554021681739587990023
3.663618984615769846868716 -0.003212610708169778318821219 2.143108043363478820708679
3.66690003427675748071124 0.02322876598864280842104968 2.146554021681739587990023
3.685811693704403424476368 -0.02503472702144181327721384 2.128279900413342140552686
3.694563160569594106874547 -0.04086512662439440585204764 2.129330201847944081805508
3.677158442043799713161434 -0.02727764376052666667193947 2.13693315207394629595683
3.675970270221572633317919 -0.04310804336347925924677327 2.145684618939136090176589
3.677158442043799713161434 0.02727764376052648626069796 2.13693315207394585186762
3.675970270221572633317919 0.04310804336347909965221348 2.145684618939135646087379
3.685811693704403424476368 0.02503472702144176470495651 2.128279900413342140552686
3.694563160569594106874547 0.04086512662439437809647202 2.129330201847944081805508
3.682113659759203461163679 -0.0008362670637140912077711619 2.117050073177082047948261
3.677929629581815795802413 0.007531793291061027878496859 2.120397836290755844146361
3.669276377921212972665899 0.009774710030145747699514835 2.129051087951359111372085
3.664807156437996926712231 -0.0008362670637142218541329464 2.134356576498289026488919
3.722413823534580501473101 -0.04109089867060976286605722 2.113363604996197242513745
3.713363604996198219510006 -0.04109089867060976286605722 2.12232910623227555291237
3.713363604996198219510006 0.04109089867060974898826942 2.12232910623227555291237
3.722413823534580501473101 0.04109089867060974898826942 2.113363604996197686602954
3.722554987741460763572832 -0.02299046159384428300587189 2.10445455066469477856117
3.717959319867772727263855 0.001433770410098800631229499 2.108909101329389912393708
3.722554987741460763572832 0.02585800241404189597771435 2.10445455066469477856117
3.70890910132939044530076 0.001264335805489155088038311 2.117874602565467334613913
3.704454550664694867379012 0.02568856780943225281976794 2.12238555313685051118
3.704454550664694867379012 -0.0231598961984539331027122 2.12238555313685051118
4.08699962235742386695847 0.01074573018100885568593128 2.126706576066413223458085
4.093499811178711311754341 0.03107868587176650793102439 2.133912585668963579621504
4.093499811178711311754341 -0.009587225509748753191074933 2.133912585668963135532294
4.079404724605553589356077 -0.03699962235742431521101636 2.120206387245125334573004
4.079404724605553589356077 0.03699962235742427357765294 2.120206387245125334573004
4.072904535784266144560206 -0.01666666666666670459928667 2.113000377642575422498794
4.065309638032395866957813 -0.02452388412222535063467177 2.106500188821287533613713
4.065309638032395866957813 0.008809449211107983970792112 2.106500188821287533613713
4.125094464067272426177624 0.0001471740680265002558860243 2.12505271000075390830375
4.125157612584656519061355 -2.087703325954131739275454e-05 2.125136735551397482169023
4.119783051343919311193531 -0.01072824544821427729390795 2.13348050740136052638718
4.114345341585798898620396 -0.02754208618290746729551088 2.141740253700680440829274
4.114345341585798898620396 0.006085595286478935259100176 2.141740253700680440829274
4.125010699662233548679069 -0.0003147028781055819911943727 2.124989822628974067697527
4.116666927812270060371702 -0.01696049251151273556947885 2.130373126236108305420203
4.111376130976571730002433 -0.03348050740135988245782528 2.138779785457851634333792
4.116666927812270060371702 0.01696049251151268005832762 2.130373126236108305420203
4.111376130976572618180853 0.03348050740135985470224966 2.138779785457851190244583
4.125010699662233548679069 0.0003147028781055090243881645 2.124989822628974067697527
4.124947551144849455795338 -0.0001466517768195404179155938 2.124905797078330937921464
4.124863786739809690118364 2.087703325946836752720522e-05 2.124842909706551097315241
4.116520014889847089989416 0.01074573018100887129844256 2.130226213313684446859497
4.108260007444922479180605 0.02755904862449505554611306 2.135672404292598969277606
4.108260007444923367359024 -0.006067588262477286928375797 2.135672404292598969277606
3.640204363705072498902382 0.005888293113524617830578656 2.171073116185022744417665
3.64510218185253620504227 0.02942599015193049505345613 2.177452777927655347411928
3.64510218185253620504227 -0.01764940392488110326718598 2.177452777927654459233509
3.640493976184517421756937 -0.001484741082020381297557066 2.191978717266537479702038
3.632278912192451691964834 0.0158060267843887977678996 2.183957434533075669946811
3.640493976184517421756937 0.03309679465079799765003798 2.191978717266537479702038
3.636309411146193770747459 -0.02392496431435333151260814 2.179438380774454842025989
3.644836378117500608198043 -0.04020436370507253498463029 2.182576160969190937066742
3.632561845360452679187802 -0.01767803514235665590659252 2.183185946560195933585646
3.640658492390620892820152 -0.03395743453307586978695554 2.19171291353150277103623
3.632561845360452679187802 0.01767803514235661080378215 2.183185946560195489496436
3.640658492390621336909362 0.03395743453307584203137992 2.19171291353150232694702
3.636309411146193770747459 0.02392496431435315457081359 2.179438380774454397936779
3.644836378117500608198043 0.04020436370507238926785831 2.182576160969190937066742
3.631677396733764773273379 -0.0003872672759476040180506851 2.167935335990286649376912
3.628048247909922086051893 0.006871030371739036447797933 2.171177217538182269152003
3.624300682124180994492235 0.0006241011997424922470856234 2.17492478332392380480087
3.624182265162283478332483 -0.000387267275947476190614549 2.175430467561768388407017
3.66677593357215503289126 -0.04332357987397886939229252 2.160048905592906187678182
3.660048905592907075856601 -0.04332357987397886245339862 2.171326385483001608633913
3.660048905592907075856601 0.04332357987397873755330835 2.171326385483002496812333
3.66677593357215592106968 0.04332357987397873061441445 2.160048905592906631767391
3.666792266021507984419259 -0.02986952391548183816105677 2.153338210063010293993102
3.663403448105269966106334 -0.003212610708169767043118625 2.156676420126021120893256
3.666792266021507984419259 0.02344430249914243591380369 2.153338210063010293993102
3.656676420126021120893256 0.005888293113524631708366464 2.167953900016116541848987
3.653338210063010738082312 0.03254520632083683640001226 2.175893169843202024082984
3.653338210063010738082312 -0.02076862009378743420540125 2.175893169843201579993774
4.134542530372213420264416 0.01179801134961480126028821 2.177255480977400292630364
4.138619773698317239052358 -0.003643524697407078682953596 2.184976249000911252551305
4.140344423568807386004664 0.007092824438385919756655529 2.195131344682947904800585
4.137991830113193714169029 -0.02137185357789555401053505 2.197565672341474041218135
4.137991830113193714169029 0.03555750245466747505584948 2.197565672341474041218135
4.13526216683778535809779 -0.03210820271368855505222939 2.181618642140379371596737
4.12399903843887116750011 -0.03697685803074031440917935 2.167386303132238900559514
4.136986816708274616871677 -0.04513134468294822260192589 2.191773737822416023846017
4.136986816708274616871677 0.04513134468294813239630514 2.191773737822416023846017
4.127356645299403936633098 0.03210820271368845790771474 2.170743909992769893335662
4.128076281764975874466472 0.04513134468294813933519904 2.175107071155749416391245
4.123279401973299229666736 -0.01666666666666666990481716 2.163023141969259377503931
4.116093516900488857856999 -0.02375138741747393270054012 2.15651157098462986638765
4.116093516900488857856999 0.009581945915859396700753337 2.15651157098462942229844
3.646390847632337006700709 -0.01508584688348085442455293 2.204399562259254707896616
3.648195423816168236896829 0.01463833408218992784832757 2.20338539596701643574761
3.648195423816167792807619 -0.04481002784915173037250113 2.20338539596701643574761
3.647765103875029613078596 -0.04639084763233744523880375 2.202594986075423477700497
3.647765103875029613078596 0.04639084763233754238331841 2.202594986075423477700497
3.645960527691197938793266 -0.0166666666666665658214086 2.203609152367662193938713
3.647334783933890989260362 0.01219687441672636860068302 2.201804576183830963742594
3.647334783933890989260362 0.04553020775005969800197647 2.201804576183830963742594
3.688629527801938312592256 -0.004125933156092219042387903 2.242755460958030244711381
3.680181572463923078686321 0.01471832209330191376661645 2.235510921916060489422762
3.688629527801938312592256 0.03356257734269604831034428 2.242755460958030244711381
3.672937033421953323397702 -0.03551092191606079750965108 2.226879204182956151214512
3.672937033421953323397702 0.03551092191606079057075718 2.226879204182956151214512
3.657244539041968778292357 0.003758408365913179505213293 2.211002947407882501806853
3.664489078083938977670186 -0.01508584688348094983434411 2.219634665140986840015103
3.657244539041968778292357 -0.03393010213287507570445456 2.211002947407882501806853
4.138860481143965763806136 0.004225545747243493466260844 2.215365064603276312737989
4.135099399882415482920806 -0.01174770827034537015731708 2.223351691612070801795653
4.125095314390061496112594 -0.00826046271436306142610384 2.237558879080577156628351
4.118852310159258678368133 -0.02915267512827332541114345 2.243779439540288578314176
4.118852310159258678368133 0.01263174969954720255893577 2.243779439540288578314176
4.129001059323301525694205 -0.03263992068425562720346278 2.217253351052956844569053
4.130434698668873139126845 -0.04508104160367870649750444 2.206807244846001658800105
4.118996973830947538885994 -0.03755887908057693042040981 2.231460538521462755312541
4.118996973830947538885994 0.03755887908057693042040981 2.231460538521462755312541
4.136533039227986208175025 0.03263992068425553005894812 2.212905585405115616026706
4.126673617407321970063094 0.03755887908057692348151591 2.214793871854796147857769
4.140294120489537377238776 -0.01666666666666676011043791 2.204918958396320682879832
4.137966678573558709786084 0.002173866042064613070261547 2.202459479198159986168548
4.137966678573558709786084 0.03550719937539793813474631 2.202459479198159986168548
3.696109972602485527204408 -0.0150999731026392833982408 2.254673374179528622107682
3.698054986301242852420046 0.0143433328331791475063195 2.25351170726278482447924
3.698054986301242852420046 -0.0445432790384575408304535 2.25351170726278482447924
3.697080814014560790070618 -0.04610997260248510254410093 2.252728360480770852802834
3.697080814014560790070618 0.04610997260248492907175333 2.252728360480770852802834
3.69513580031580346485498 -0.0166666666666668399077178 2.253890027397514650431276
3.696106641727878283631981 0.01082829469578684179753569 2.251945013698757325215638
3.696106641727878283631981 0.04416162802912017293355262 2.251945013698757325215638
3.74002240622587578400271 -0.002509820838075521587384742 2.292532227063951211221138
3.731212862517010453444755 0.01588796662316037389128809 2.28506445412790215598875
3.74002240622587578400271 0.03428575408439627630885482 2.292532227063951211221138
3.723745089580962286390786 -0.03506445412790257232238389 2.276648907179297687264352
3.723745089580962286390786 0.03506445412790255844459608 2.276648907179298575442772
3.707467772936048788778862 0.003297814358596784251737022 2.260765587294645051485986
3.714935545872096955832831 -0.01509997310263911686478711 2.269181134243249076121174
3.707467772936048788778862 -0.03349776056387501754763036 2.260765587294645051485986
4.129182001765666853998482 0.0009977657410898941627019898 2.271815763975421731402093
4.127839325188650043685357 -0.003683118895122937559716281 2.274156206293528104112056
4.118440805814458371969522 -0.0151139198532623565685018 2.284331099074423221395591
4.110384963017281734209973 -0.0327783522610189184676166 2.292165549537211521879954
4.110384963017281734209973 0.002550512554494208366379082 2.292165549537211521879954
4.120179987330804927125882 -0.02134755130287950553036325 2.266496868435682987552582
4.115550873103079432269169 -0.03701645222845627997143581 2.257664652231804680582172
4.110781467956613255410048 -0.03433109907442323527337891 2.276671761216578104836117
4.110781467956613255410048 0.034331099074423228334485 2.276671761216578104836117
4.123210210960924548828643 0.02134755130287949859146934 2.265323990089650241230856
4.114208196526062621956044 0.034331099074423228334485 2.260005094549911053292135
4.124552887537941359141769 -0.01666666666666666990481716 2.262983547771543868520894
4.11858109673319816579351 -0.02124401048590679463856645 2.256491773885771934260447
4.11858109673319816579351 0.01208932284742654690579133 2.256491773885771934260447
3.748581439890245281532088 -0.01592942274584790290914427 2.301787182070163417790809
3.749290719945122418721439 0.01598535047773089884382003 2.30144652397569560164925
3.749290719945122418721439 -0.04784419596942669772321466 2.30144652397569560164925
3.748901369923369308878591 -0.04858143989024546471888755 2.301077902015286724690668
3.748901369923369308878591 0.04858143989024546471888755 2.301077902015286724690668
3.74819208986849261577845 -0.01666666666666666990481716 2.301418560109754540832228
3.748512019901616643124953 0.01446940651340584971240588 2.300709280054877403642877
3.748512019901616643124953 0.04780273984673917564425238 2.300709280054877403642877
3.790051829707822950155105 -0.002419070462221437067817931 2.342470900170044778576539
3.781319564598844884528717 0.01585606321120077571995566 2.334941800340089024246026
3.790051829707822950155105 0.03413119688462298850772925 2.342470900170044778576539
3.773790464768889130198204 -0.03494180034008887575369684 2.326172855463787492169558
3.773790464768889130198204 0.03494180034008887575369684 2.326172855463787492169558
3.757529099829955754330513 0.002345710927574309878629322 2.309874810757529761673368
3.765058199659911508661025 -0.01592942274584789597025036 2.318643755633831737839046
3.757529099829955754330513 -0.03420455641927010181913005 2.309874810757529761673368
4.094707651483650678869708 0.01479605387886506404071518 2.32008840239521463288952
4.089415302967301713010784 -0.01666666666666664214924154 2.327105678423083023886875
4.094707651483650678869708 -0.01853727945446827229947218 2.32008840239521418880031
4.078737683502978939031891 -0.004688572261977206646899052 2.339415302967301268921574
4.073352412555006907268762 -0.02743720856261199284031882 2.344707651483650678869708
4.073352412555006907268762 0.01806006403865755005622162 2.344707651483650678869708
4.084205505533560653930181 -0.03941530296730143267947 2.321895880989341964806272
4.073527886069238768129708 -0.03941530296730143267947 2.334205505533560209840971
4.073527886069237879951288 0.0394153029673014465572578 2.334205505533559765751761
4.084205505533559765751761 0.03941530296730145349615171 2.321895880989341964806272
4.106346029298197919388258 -0.03951610868119750930027578 2.305569655891496871902291
4.105569655891496694266607 -0.03951610868119750236138188 2.309926698013945234322364
4.105569655891496694266607 0.03951610868119743297244284 2.309926698013945234322364
4.106346029298197919388258 0.03951610868119743297244284 2.305569655891496427813081
4.106794692472804264582464 -0.03796336186779319943340738 2.305241945659401103796426
4.111260264725503432714504 -0.01511391985326242942688779 2.310483891318802385228537
4.106794692472804264582464 0.007735522161268411703294312 2.305241945659401103796426
4.110483891318802207592853 -0.007952582421769795878452314 2.31484093344125074764861
4.105241945659400926160743 0.01489685959276104351700631 2.313956029904298272725782
4.105241945659400926160743 -0.03080202443630056241552495 2.313956029904297828636572
3.798394070955398493794064 -0.01551401178943611833260796 2.352182256483216882259057
3.799197035477699380123795 0.01621339249929541759254192 2.35195561939953146080029
3.799197035477699380123795 -0.04724141607816766119665175 2.3519556193995319048895
3.798791733749966148536714 -0.0483940709553982162383079 2.351379291960916440018536
3.798791733749966148536714 0.04839407095539820236052009 2.351379291960916440018536
3.797988769227665262206983 -0.01666666666666666990481716 2.351605929044602305566514
3.798386432022233805128053 0.01425013416659897530491818 2.350802964522300975147573
3.798386432022233805128053 0.04758346749993231511455249 2.350802964522300975147573
3.837375019963090938546202 -0.005424386713638722559704952 2.392799406676730189502678
3.829488399966450629108294 0.01350775997315475408788732 2.385598813353460023733987
3.837375019963090938546202 0.03243990665994823940909697 2.392799406676730189502678
3.822287806643180463339604 -0.03559881335346015696075028 2.376709067448678602829659
3.822287806643180463339604 0.03559881335346014308296247 2.376709067448678602829659
3.807200593323269988133006 0.003418134897357362651793 2.360618728220627460245851
3.814401186646539265723277 -0.01551401178943612527150187 2.369508474125408881150179
3.807200593323269988133006 -0.03444615847622960885798804 2.360618728220627460245851
4.081059748416046240038213 0.001154852801443956387267287 2.370095104385396389545804
4.078896013809105269842803 -0.005482322015324965665261647 2.373413691793781143957176
4.068582292821980139763127 -0.01514511995892586088130471 2.384488186134776643854138
4.060432306441795091700442 -0.03296663942703643990217444 2.392244093067388277518148
4.060432306441795979878862 0.00267639950918469949128764 2.392244093067388721607358
4.071293640231091970349553 -0.02330384148343554728821658 2.365811318215767400374716
4.0683719276993821623023 -0.03881565534865831501587508 2.356900558481712426583954
4.060979919243966840269877 -0.03448818613477722117011126 2.376885812556763344360888
4.060979919243966840269877 0.03448818613477724892568688 2.376885812556763344360888
4.07597430127739546179555 0.02330384148343560626881477 2.364502932059725726077204
4.06620819309244119210689 0.03448818613477724892568688 2.360219145890096736906116