# geometry NO_DATA 768
#  x  y  z
3.896247268447371681077129 0.02746130252765680707094376 1.781214034080286001682225
3.892494536894742118704471 -0.01666666666666666990481716 1.784977919711198568464283
3.896247268447371681077129 -0.005872030805676527534520126 1.781214034080286001682225
3.881902870695267182554744 -0.004516665732282883205517265 1.792494536894740919663604
3.875063936048420920599256 -0.03034453596035736194780341 1.796247268447370259991658
3.875063936048420920599256 0.02131120449579159553676888 1.796247268447370259991658
3.88877598237550348159175 -0.0424945368947411486471033 1.781259365191960597485377
3.878184316176028545442023 -0.0424945368947411417082094 1.788775982375502504595488
3.878184316176028545442023 0.0424945368947411486471033 1.788775982375502504595488
3.88877598237550303750254 0.0424945368947411486471033 1.781259365191960597485377
3.945001633419855213702476 0.02005558173435718211097267 1.775053948314501583993774
3.940003266839710693858478 -0.0166666666666666594964763 1.780029424287033812390746
3.945001633419855213702476 -0.01327775159897614382087383 1.775053948314501583993774
3.927160615022962097953041 -0.00901863696682965627904327 1.786179251989792327037776
3.919316329786358910070021 0.006669933506377651033503184 1.787353603720018391243229
3.935132506998478607584957 -0.04000326683971097696534969 1.775158664445801282028015
3.915492314936440898520686 -0.03235523713987396854374623 1.783661001386394717727057
3.918465840331812444219395 -0.04000326683971097696534969 1.777615889814935901114268
3.92228985518173001167952 0.03235523713987398242153404 1.78130849214855957463044
3.910621555095208368157955 0.0423519703001629943539541 1.778790241545161965319721
3.935132506998478163495747 0.04000326683971097696534969 1.775158664445801282028015
3.903824014849918810909912 0.02731873593307865971668846 1.781142750782996886371734
3.907648029699837266548457 0.001633432299582330497061955 1.784835353116620559887906
3.903824014849919254999122 -0.02405187133391399958992629 1.781142750782996886371734
3.997394031031912042806198 0.03465081581875939509274076 1.787256784786846797175031
3.994788062063824529701606 -0.01666666666666666990481716 1.789719438941291596023575
3.997394031031912042806198 0.001317482485426052897861671 1.787256784786846797175031
3.983263752472760987899392 -0.006381952515460286197435114 1.789645704988220842324154
3.97434541184978495920177 0.01145472873049095674513609 1.787109316880705733865398
3.992458219746405578831627 -0.0447880620638242965547704 1.787389596623873089242807
3.969203054774181893549212 -0.03450334791261790157168576 1.782277831403631829232381
3.975791553079738527287645 -0.04478806206382428267698259 1.782484377193728430910369
3.980933910155342481118623 0.03450334791261790851057967 1.787315862670802335543385
3.966873212456763386768444 0.03971528584879362167026073 1.779947989086213322451613
3.992458219746405578831627 0.04478806206382428267698259 1.787389596623873089242807
3.955142357075603687377452 0.01976760074343982681588372 1.774909957819042816140609
3.9602847141512063089408 -0.003281018438687124949559859 1.779741443296116276684415
3.955142357075603243288242 -0.02632963762081407671500344 1.774909957819042816140609
4.014710357251176198190024 -0.03257228589461903800472697 1.79728264314579555538387
4.011431213906893944454168 -0.004673666269694011846103088 1.794565286291591288403424
4.014710357251176198190024 0.0232249533552310212514147 1.79728264314579555538387
4.008713857052690343607537 -0.04456528629159169085927061 1.792214020023263021386128
4.008713857052690343607537 0.04456528629159170473705842 1.792214020023263021386128
4.002717356854203600846631 0.03442804004652680327502878 1.787145396900730709432992
4.005434713708408089871682 0.006529420421601772779596207 1.789496663169058976450287
4.002717356854203600846631 -0.02136919920332325945055985 1.787145396900730709432992
3.842247477127820332043484 0.002374675504545461536543005 1.810127198376724866335508
3.834494954255641019358336 -0.01666666666666668378260496 1.818434814880093286504348
3.842247477127820332043484 -0.03095865782878786526266524 1.810127198376724866335508
3.818197076947200230279122 -0.01592908795021434620320377 1.834494954255641019358336
3.809651722510939197974267 -0.03375737553918857491996874 1.842247477127820332043484
3.809651722510938753885057 0.001899199638759907883892031 1.842247477127820332043484
3.826810444530925003903121 -0.03449495425564091943826384 1.810750305155377493093738
3.810512567222484214823908 -0.03449495425564091943826384 1.826810444530925225947726
3.810512567222484214823908 0.03449495425564089862158212 1.826810444530925225947726
3.826810444530925003903121 0.03449495425564089168268822 1.810750305155377493093738
3.858882562659248449676852 -0.04488891046177212462708894 1.802807562192056067829071
3.852807562192056778371807 -0.04488891046177211074930113 1.803414089483174942429855
3.852807562192056778371807 0.04488891046177210381040723 1.803414089483174942429855
3.858882562659248449676852 0.04488891046177210381040723 1.802807562192056067829071
3.864705545703497779896907 -0.03273890952738833792778905 1.802555544769113726744081
3.861186090005420457060836 -0.004516665732282893613858121 1.805111089538227631123846
3.864705545703497779896907 0.02370557806282255763896671 1.802555544769113726744081
3.855111089538228341666581 -0.01545361208442877672120108 1.805717616829346505724629
3.852555544769113993197607 0.01276863171067667453162375 1.803768599351351697990253
3.852555544769113993197607 -0.04367585587953421583096159 1.803768599351351697990253
4.043037144892268841545047 0.02261646985146647040321177 1.82957932495919828319586
4.036074289784536972547357 -0.01666666666666667684371106 1.82934537981800149353262
4.043037144892268841545047 -0.01071686348186685899808168 1.82957932495919828319586
4.027676111177427742404689 -0.0001296905475499972456524672 1.827805801724978529421151
4.026240787678052157616548 0.002740956451203228980834092 1.826500168773151688839107
4.022436249306273303716353 -0.0226024146868315442548969 1.816439749107787493542787
4.032366978424088088672761 -0.03607428978453658396929882 1.819641568259066533030932
4.024708237167345714624389 -0.006065438567714864954993903 1.824837927714895835507036
4.024708237167345714624389 0.006065438567714831127886121 1.824837927714895835507036
4.022436249306273303716353 0.02260241468683152690766214 1.816439749107787493542787
4.032366978424088088672761 0.03607428978453657703040491 1.819641568259066533030932
4.018728937945824419841756 -0.02453512450532230673716505 1.806735937548852533041099
4.019468375296190387757633 -0.004673666269694020519720468 1.813471875097704799628673
4.018728937945824419841756 0.01518779196593427784078845 1.806735937548852533041099
4.02174036315726368684409 0.0001296905475499648551125642 1.821870053704813585682132
4.023272913667970129836249 -0.003194791568961637562990008 1.823532294763069216969598
4.063825718471214543114911 -0.03342121490345827117263156 1.847246933374672384076121
4.061042459173599183941405 -0.005594014820779935788508386 1.844493866749345345468214
4.063825718471214543114911 0.02223318526189840826923216 1.84724693337467282816533
4.058289392548271479199684 -0.04449386674934500962574901 1.840518023408137526786277
4.058289392548271479199684 0.04449386674934500268685511 1.840518023408137526786277
4.052753066625328415284457 0.03103604681627490646800283 1.833789113441602447451828
4.055506133250656120026179 0.003208846733596561976581407 1.837764956782809822044555
4.052753066625328415284457 -0.02461835334908177297386089 1.833789113441602447451828
3.74698221015677379597264 0.03185571344554130601700592 1.884873503288767127017422
3.74396442031354803603449 -0.01666666666666666990481716 1.887910066879544546125658
3.74698221015677379597264 -0.001477619887792024468489704 1.884873503288766904972817
3.737883141461254332682529 0.00450410896207861875112366 1.893964420313547947216648
3.734819652452186389268718 -0.02279364468480290367713437 1.896982210156773707154798
3.734819652452186389268718 0.03180186260896013944465821 1.896982210156773707154798
3.740947657806501958077661 -0.04396442031354819146571344 1.884893304372498024079619
3.734866378954208698814909 -0.04396442031354819146571344 1.890947657806501647215214
3.73486637895420781063649 0.04396442031354817758792564 1.890947657806501425170609
3.740947657806501513988451 0.04396442031354817758792564 1.884893304372498024079619
3.792121041563949468411465 0.001445523821141011730495585 1.859324482257190158662752
3.784242083127900002637034 -0.01666666666666666990481716 1.867843803474520836260808
3.792121041563949468411465 -0.03188780951219232634441525 1.859324482257190158662752
3.770630543923248811921667 -0.0105564117426351217199354 1.881186955665885562893891
3.764897963154647531069941 0.0009087497945681326802849775 1.886010786639918723750498
3.776375639879420820221867 -0.03424208312790146674364777 1.859977360226041875890246
3.761842835692632114330536 -0.02813182820386991855876602 1.883011560667931405532727
3.759708973212755100945515 -0.03424208312790145980475387 1.870321286445418618171743
3.762764100674770961774129 0.02813182820386991855876602 1.873320512417406380478724
3.753976392444153820093788 0.0438897450759684476517819 1.87514511741945222311756
3.776375639879421264311077 0.03424208312790147368254168 1.859977360226041875890246
3.753055127462015860828615 0.03178103820796156220307438 1.884836165669977248171563
3.75611025492403083347881 0.004557959798659782721386158 1.887835391641964566389333
3.753055127462015860828615 -0.02266511861064200022974902 1.884836165669977248171563
3.80158047289127987156121 -0.04775519234650133643116376 1.851211683533054763728387
3.801211683533054497274861 -0.04775519234650133643116376 1.851480070546341227810672
3.801211683533054497274861 0.04775519234650134337005767 1.851480070546341227810672
3.80158047289128031565042 0.04775519234650134337005767 1.851211683533055207817597
3.801859982543201343929695 -0.04701761363004899885176258 1.851122403826749085453685
3.802613597011724522189979 -0.01592908795021431150873426 1.852244807653498526178737
3.801859982543201343929695 0.01515943772962035675233583 1.851122403826749307498289
3.802244807653497815636001 -0.01612989264009377990416461 1.852513194666784990261021
3.801122403826748374910949 0.01495863303974089182635243 1.851659177853322013618254
3.801122403826748374910949 -0.04721841831992846377774597 1.851659177853322013618254
4.08963730163054783872667 -0.002797708047717853419023015 1.892435009678265611654524
4.081166136297874835747734 0.01540564464214724989254979 1.8848700193565317562161
4.08963730163054783872667 0.03360899733201237749025125 1.892435009678265611654524
4.067992371023946063246512 -0.04426598763996765495409846 1.862456045101003043740207
4.07002103542273729885892 -0.0291360069964994444768891 1.871557721445935351667345
4.083190184897127927854399 -0.03487001935653179229834819 1.885357381932585507655631
4.07002103542273729885892 0.02913600699649940284352567 1.871557721445935351667345
4.083190184897127927854399 0.03487001935653176454277258 1.885357381932585507655631
4.067992371023946063246512 0.04426598763996764107631066 1.862456045101003043740207
4.063939658025902623705861 -0.033193335794080916500981 1.852867006180016318239723
4.061270338282975345123305 -0.00559401482077994706421098 1.855734012360032547661604
4.063939658025902623705861 0.02200530615252103971979381 1.852867006180016540284328
4.063299002681766580735712 0.001536686023198415408999584 1.864835688704964855588742
4.067996986823484206752255 -0.01093265430663434290003977 1.871070358869881156138604
3.693774124735833552790609 0.01257396130885461357773458 1.918799836573021000418748
3.687548249471666483856325 -0.01666666666666667684371106 1.925061105390260429714999
3.693774124735833552790609 -0.02075937202447871929300582 1.918799836573021000418748
3.674967835741256738657512 -0.008494160794152837840043091 1.93754824947166626181172
3.668613297275013174214564 -0.02937574359915257060649196 1.943774124735833108701399
3.668613297275013174214564 0.01238742201084690186529969 1.943774124735833108701399
3.681324562450085213782813 -0.03754824947166640614071298 1.918837418368678493507673
3.668744148719675024494791 -0.03754824947166640614071298 1.931324562450084769693603
3.668744148719675024494791 0.03754824947166639226292517 1.931324562450084769693603
3.681324562450085213782813 0.03754824947166639226292517 1.918837418368678493507673
3.73577111306070097640486 0.0006522664737682555080935942 1.914881153413066972035494
3.730874756385676338510393 -0.01044497982381656538131143 1.920429776561859203098948
3.723618638903760658109832 -0.004067255140016292486171423 1.927685894043775771677929
3.721258878096867839246897 0.0006522664737682598449022842 1.929393388376899887148852
3.722890613103747803336319 -0.0277639129642514928542063 1.912445633279930223835663
3.724816534347902496904226 -0.04377831315714989651732836 1.903786166709712901479179
3.714959172333543335753347 -0.02138618828045122169378978 1.923205950058819446724101
3.709334789858505843085368 -0.03398559980710159911243551 1.913514312443766129945288
3.715634495621831234757337 0.02138618828045121822434282 1.919701750761846570370039
3.706975029051613468311643 0.03740058847334962188746488 1.915221806776890023371607
3.73280067762983147616751 0.0277639129642514859153124 1.911770309991641880742463
3.719920177672879191277389 0.0339855998071015852346477 1.909334789858505354587237
3.737697034304855669972767 -0.01666666666666666990481716 1.90622168684284964967901
3.734726598873987057913837 -0.001717577880771483603977723 1.903110843421424558385979
3.734726598873987057913837 0.03161575545256184449627312 1.903110843421424558385979
3.706299705763325569307653 0.01242630031053783626338038 1.918726006073862677681063
3.712599411526650516890413 -0.00830762149614511918871429 1.924913444391943118105814
3.706299705763325569307653 -0.02904154330282807811025592 1.918726006073862677681063
4.096701293729717363589771 -0.01482176464511100744125827 1.904221157281059451094052
4.098350646864858504159201 0.01521286241794046756314884 1.903494255156696235431468
4.098350646864858504159201 -0.04485639170816248244566538 1.903494255156696013386863
4.09772013585259831103258 -0.04670129372971815184811817 1.902571804145918310524621
4.097720135852599199210999 0.04670129372971815184811817 1.902571804145918310524621
4.096070782717458058641569 -0.01666666666666666296592325 1.90329870627028174823181
4.097089624840339894262797 0.01210693837186541110817473 1.901649353135140607662379
4.097089624840339894262797 0.04544027170519875091780904 1.901649353135140607662379
4.137925011898688332223628 -0.004874958411945792997876925 1.942799970310635560011292
4.129762550483389915711996 0.01405831554265827773586572 1.935599940621270720342295
4.137925011898688332223628 0.03299158949726233719390578 1.942799970310635560011292
4.122562520794025964221419 -0.03559994062127072589341026 1.927055754654746211329552
4.122562520794025964221419 0.03559994062127073977119807 1.927055754654746211329552
4.107200029689363596219209 0.004111509309493066761931335 1.911311538998857528781627
4.114400059378727547709786 -0.01482176464511100223708784 1.91985572496538159370516
4.107200029689363596219209 -0.03375503859971507730763918 1.911311538998857528781627
3.642825589574818057059247 0.006796991597507963736579661 1.963971402022688383937066
3.635651179149637535203965 -0.01666666666666664214924154 1.971224085373573631230215
3.642825589574818057059247 -0.02653634173582536392999032 1.963971402022688828026276
3.621052062506605384584191 -0.01253156661939854726872667 1.985651179149638956289436
3.613627356288753311730488 -0.03151607910237063520098033 1.992825589574819478144718
3.613627356288753311730488 0.006452945863573517244760058 1.992825589574819478144718
3.6284803532020655225665 -0.0356511791496387300814952 1.96405325942600161859275
3.613881236559033371946725 -0.0356511791496387370203891 1.978480353202066943651971
3.613881236559033371946725 0.03565117914963875783707081 1.978480353202066499562761
3.6284803532020655225665 0.03565117914963875783707081 1.96405325942600161859275
3.678902890566579486630872 0.0004342182014633042593659829 1.97153132763488381229422
3.677277108934386973260189 -0.00368578146584786284223334 1.973591327468539269318626
3.674438500442615662677781 -0.001991435517694724929155248 1.976429935960310135811824
3.673225673583036865466056 0.0004342182014633038798952225 1.97720854461842621141443
3.669221532283202691360202 -0.02078666633397781987602215 1.965535750817355431507849
3.664757342785394556017309 -0.0370191147991812061213146 1.956985308383290877998206
3.665888058008550220989719 -0.01909232038582468066190145 1.970119066416846864697732
3.659045308216945180390667 -0.03376755153479660959137121 1.961284881107547395373558
3.666382923791431380777794 0.01909232038582470841747707 1.968374359309126520045652
3.657832481357366383178942 0.03532476885102807384608781 1.96206348976566324893156
3.672812919436578837917295 0.02078666633397784416215082 1.965040885034474271719773
3.663131561153202486735836 0.03376755153479661653026511 1.959045308216946112978007
3.674438701068771351287978 -0.01666666666666664908813544 1.962980885200818814695367
3.668348729938770702574402 -0.02147504599497160673871043 1.956490442600409496165526
3.668348729938770702574402 0.01185828733836172266258302 1.956490442600409496165526
3.657337615574484779301656 0.006470581298897291888660988 1.96380819687338359358364
3.664675231148971423777994 -0.01218752088546411205260966 1.970897675074962496211128
3.657337615574484779301656 -0.03084562306982552640222117 1.96380819687338314949443
4.143640873796077706003871 -0.01415243056968398457917679 1.957616244252412984749867
4.14682043689803858654841 0.0128217765597279029221589 1.955693799198943594319644
4.14682043689803858654841 -0.04112663769909586514161859 1.955693799198943594319644
4.145516261336034347095847 -0.043640873796078546997812 1.954436681150452104205328
4.145516261336034347095847 0.043640873796078546997812 1.954436681150452104205328
4.142336698234073466551308 -0.01666666666666666990481716 1.956359126203921494635551
4.144212085774030107643284 0.007699189338736822825481898 1.953179563101960614091013
4.144212085774030107643284 0.04103252267207015135941361 1.953179563101960614091013
4.188635820596370962221044 -0.004121660846846381294483752 1.992757481443218070538137
4.180181688133356665559859 0.0147266353729239019010322 1.985514962886436141076274
4.188635820596370962221044 0.03357493159269418075973945 1.992757481443218070538137
4.17293916957657629041023 -0.03551496288643694876352441 1.977347932825042953197681
4.17293916957657629041023 0.03551496288643694182463051 1.977347932825042953197681
4.157242518556779842242577 0.004695865650086299483700891 1.961938384206867613812619
4.164485037113561993749045 -0.01415243056968398284445332 1.970105414268261245780423
4.157242518556779842242577 -0.0330007267894542599684371 1.961938384206867613812619
3.592488563160552317299334 0.004568503930343014232673404 2.012079940769789576648918
3.584977126321104989870037 -0.01666666666666668031315801 2.019772815125723930407275
3.592488563160551429120915 -0.02876482940299031690334353 2.012079940769789576648918
3.56956394608386506916986 -0.01415969380781301363569913 2.03497712632110605568414
3.561662202686072919988192 -0.03247015346225254339707078 2.042488563160553383113438
3.561662202686072919988192 0.004150765846626530870822069 2.042488563160553383113438
3.577471216662994724089231 -0.03497712632110621527870009 2.012266905467614108715679
3.562058036425755691567474 -0.03497712632110620833980619 2.027471216662995789903334
3.562058036425755247478264 0.03497712632110619446201838 2.027471216662995789903334
3.577471216662994724089231 0.03497712632110619446201838 2.012266905467614108715679
3.626369343373032627653174 0.0002148139656683599506628579 2.023845470592635642503865
3.62584578216076724999084 -0.001261936390198496087469704 2.02458384577056893505187
3.624775630971259321455591 -0.0008783659888185323550563455 2.025653996960077751765539
3.624229040994015438315046 0.0002148139656683589748809027 2.025985772971652387752783
3.61777295736679072035713 -0.01814341702253353255658297 2.01651102097659240541816
3.611399767074257027843487 -0.03459526972353182266983751 2.008070280660424700158728
3.61633489065509117210695 -0.01775984662115356882416961 2.018675612115194972773224
3.608808655838357637435365 -0.03354814729900171266230302 2.01027101130964291897385
3.616702806177281903643461 0.01775984662115354453804095 2.017581172166100778042619
3.60826206586111419838403 0.03421169932215183812074244 2.010602787321218443139514
3.619472591868233557477197 0.01814341702253350827045431 2.016143105454401673881648
3.610876205861991650181153 0.03354814729900169878451521 2.008808655838358436795943
3.619996153080498491050321 -0.01666666666666667684371106 2.015404730276467937244433
3.613099401575699864963553 -0.02793629689586676206891624 2.007702365138233968622217
3.613099401575699864963553 0.0053970364374665716691859 2.007702365138233968622217
3.607894150338923466847518 0.003803076931388660493482679 2.01169722727031263787012
3.615788300677847733055614 -0.0137419557240965259370391 2.019007388126770052849679
3.607894150338922578669099 -0.0312869883795817080307522 2.01169722727031263787012
4.196150992601635820733463 -0.01509417519559689592478779 2.004635253133897343502667
4.198075496300817555095364 0.01439015073937375405188632 2.003496995170250816187263
4.198075496300817555095364 -0.04457850113056754937090886 2.003496995170250816187263
4.197105480653946507629826 -0.0461509926016373320245556 2.002710749434716053229977
4.197105480653946507629826 0.04615099260163730426897999 2.002710749434715609140767
4.195180976954764773267925 -0.01666666666666666990481716 2.003849007398362136456171
4.196135465007075460164288 0.01087762797456121380279548 2.001924503699180846183481
4.196135465007075460164288 0.04421096130789454320408893 2.001924503699180846183481
4.240203262655262150815361 -0.002334512811460159875664999 2.042537775466723104500488
4.231294968127546241021264 0.01607437145531956726451916 2.03507555093344638663666
4.240203262655262150815361 0.03448325572209929440470333 2.042537775466723104500488
4.223832743594268634979016 -0.03507555093344640051444827 2.026657354535591260003002
4.223832743594268634979016 0.03507555093344639357555437 2.026657354535591260003002
4.207462224533275119142672 0.003314709071182836419566797 2.010776933604459415505517
4.2149244490665518370065 -0.01509417519559689419006432 2.019195130002314542139175
4.207462224533275119142672 -0.03350305946237662479969543 2.010776933604459415505517
3.54239594462759299631216 0.003687635789302956632745856 2.061291691161710293300757
3.534791889255185282081584 -0.01666666666666663867979459 2.069239762522244063802646
3.54239594462759299631216 -0.02964569754403037493695194 2.061291691161710293300757
3.519096326043176681253044 -0.01472445975735081798163595 2.0847918892551851044459
3.511004818203574906476661 -0.03284968234586940066810357 2.092395944627592374587266
3.511004818203574906476661 0.003400762831167744755511695 2.092395944627592374587266
3.527198064942822952616552 -0.03479188925518521963153873 2.061645938209882178426824
3.511502501730814351788013 -0.03479188925518522657043263 2.077198064942822774980868
3.511502501730814351788013 0.03479188925518524044822044 2.077198064942822774980868
3.527198064942823396705762 0.03479188925518524738711434 2.061645938209881734337614
3.559579864181209529760963 -0.03390887805502339202856632 2.058326377751782843006367
3.558326377751782843006367 -0.03390887805502339202856632 2.059440917685508409817885
3.558326377751782843006367 0.03390887805502339202856632 2.059440917685508409817885
3.559579864181209529760963 0.03390887805502339202856632 2.058326377751782843006367
3.560552533831342181258606 -0.03140190519616972708583091 2.058045560972488363660204
3.567344608374403591710688 -0.01415969380781299975791132 2.066091121944976904956093
3.560552533831342181258606 0.003082517580543726268965665 2.058045560972488363660204
3.566091121944976904956093 -0.01443758679921562822212611 2.06720566187870247176761
3.558045560972488363660204 0.00280462458914109780475088 2.06027464083993949728324
3.558045560972488363660204 -0.0316797981875723555500457 2.06027464083993949728324
4.248993150764570181365798 -0.01605303253688243267371938 2.051313666300321969515608
4.249496575382284646593689 0.01627345156102104339890246 2.051117058747498944626386
4.249496575382284646593689 -0.04837951663478590874634122 2.051117058747498944626386
4.249200427776610666796842 -0.04899315076457014250799205 2.050810241682607060198507
4.249200427776611554975261 0.04899315076457014250799205 2.050810241682606616109297
4.24869700315889708974737 -0.01666666666666666296592325 2.051006849235429640998518
4.248904280170937575178414 0.01506752221988971914001798 2.050503424617714287592207
4.248904280170937575178414 0.04840085555322305027603491 2.050503424617714287592207
4.289291273120596770240809 -0.003239057334525595639729278 2.092530330455122822286285
4.280850140877613618783926 0.01515493690905395096635289 2.085060660910245999843937
4.289291273120596770240809 0.03354893115263352099120198 2.092530330455122822286285
4.273380471332736796341578 -0.03506066091024623299077234 2.076170480853348543348602
4.273380471332736796341578 0.03506066091024621217409063 2.076170480853348099259392
4.257469669544876822442347 0.002340961706697108294511489 2.0598106312515733762325
4.264939339089753644884695 -0.01605303253688245349040109 2.068700811308471276817045
4.257469669544876822442347 -0.03444702678046199229022761 2.05981063125157382032171
3.493847771986895001106177 0.01057272478458580813875933 2.116724952797690129102648
3.487695543973790002212354 -0.0166666666666666525575824 2.124134134379187521801668
3.493847771986895001106177 -0.02276060854874752473198107 2.116724952797690129102648
3.475372069631902149922098 -0.007980282017109005185395709 2.137695543973790357483722
3.469200823303119296525665 -0.02900915932423303936205095 2.143847771986894912288335
3.469200823303119296525665 0.01304859529001501511347172 2.143847771986895356377545
3.481570904766823737475079 -0.03769554397379068499951416 2.118009495172221257064393
3.469247430424935885184823 -0.03769554397379068499951416 2.131570904766823648657237
3.469247430424935885184823 0.03769554397379069887730196 2.131570904766823648657237
3.481570904766823737475079 0.03769554397379069887730196 2.118009495172221257064393
3.506288550991744301654762 -0.03998415733634436836085868 2.105317447537085939757162
3.50531744753708673911774 -0.03998415733634436836085868 2.108422704609149711529881
3.50531744753708673911774 0.03998415733634438917754039 2.108422704609149711529881
3.506288550991744301654762 0.03998415733634437529975258 2.105317447537085939757162
3.506950128241143715968064 -0.03804195042702854245852961 2.105007921331827347444232
3.510986946118313856146642 -0.01472445975735082665525333 2.110015842663655050159832
3.506950128241143715968064 0.008593030912326875270235149 2.105007921331827347444232
3.51001584266365584952041 -0.0104561525225382121601081 2.113121099735718821932551
3.5050079213318277027156 0.01286133814713948976538038 2.111218435475955335078879
3.5050079213318277027156 -0.03377364319221592969810786 2.111218435475955779168089
4.296536356174112114558739 -0.00809712156652513288801476 2.107748416375957667412422
4.298268178087056412550737 0.02177256794092065350643139 2.110301367013085016566265
4.298268178087055524372317 -0.03796681107397091581301396 2.110301367013085016566265
4.297512313208248890816776 -0.04653635617411244762564593 2.106016594463014257598843
4.297512313208249778995196 0.04653635617411245456453983 2.106016594463014257598843
4.295780491295305481003197 -0.01666666666666666990481716 2.10346364382588735253421
4.296756448329443145439654 0.01169129308316641663312296 2.101731821912943054542211
4.296756448329443145439654 0.04502462641649974950386337 2.101731821912943054542211
4.321716523770883000565846 -0.02392930529442447232235658 2.145645829065307985672462
4.31738951828747907768502 0.0006956861695253807598149365 2.141291658130616504251975
4.321716523770883000565846 0.02532067763347521996419864 2.145645829065307985672462
4.313035347352787596264534 -0.04129165813061650563975391 2.133263934948712581274322
4.313035347352787596264534 0.04129165813061652645643562 2.133263934948712137185112
4.304354170934691303784803 0.01652786989742472539832718 2.120882040832116288697762
4.308708341869382785205289 -0.008097121566525117275503476 2.128909764014020655764625
4.304354170934691303784803 -0.03272211303047496688822804 2.120882040832116288697762
3.480642162294984132131503 0.002861472991763076931942544 2.172219310696778649116823
3.479967185891314152001996 -0.004211425799102479043678482 2.175755760092211499312498
3.472429506889968653382539 -0.0108639322035892927492684 2.18619480632509599615787
3.465566804292292246714169 -0.03039207186201905996902894 2.193097403162547642807567
3.465566804292292690803379 0.0086642074548404918177269 2.193097403162547642807567
3.47316415967374370055154 -0.02373956545753224539607729 2.168952733874641491951252
3.467743282169307939000191 -0.03754475913243579543454587 2.159188664045426087056967
3.465626480672398201932083 -0.03619480632509645273708898 2.179391780107525988796624
3.465626480672398201932083 0.03619480632509643192040727 2.179391780107525988796624
3.474546308386877946361437 0.02373956545753220376271386 2.165991690262996538507423
3.467068305765638402959894 0.03619480632509643192040727 2.162725113440859381341852
3.475221284790547926490945 -0.01666666666666668725205191 2.162455240867563688311748
3.469125430882441740720878 -0.0204355228846732489556004 2.156227620433782021791558
3.469125430882441740720878 0.01289781044866008391514001 2.156227620433782021791558
4.325597845654322703978778 -0.01919956289318440825764078 2.194797408547506822884543
4.320602810005899740986024 0.003728587535163310155011951 2.189594817095014356311822
4.325597845654322703978778 0.02665673796351102423085599 2.194797408547506822884543