# geometry NO_DATA 784
#  x  y  z
3.442579273101993297956369 0.005475638611956022867854887 1.812896365509962137707589
3.435158546203987306455474 -0.01666666666666663174090068 1.820317092407971459877558
3.442579273101993297956369 -0.02785769472137730740080031 1.812896365509962137707589
3.418861996004562531226156 -0.01592643373218234278954064 1.835158546203987217637632
3.409986172703144635676153 -0.03441831326950317571089499 1.842579273101993653227737
3.409986172703144635676153 0.002565445805138450666854633 1.842579273101993653227737
3.427737819305975541794851 -0.03515854620398746466225504 1.812896365509960583395355
3.411441269106552098833163 -0.03515854620398746466225504 1.827737819305976119110824
3.411441269106551210654743 0.03515854620398749241783065 1.827737819305976341155429
3.427737819305976429973271 0.03515854620398749241783065 1.81289636550996036135075
3.492051045799232866784223 0.002306274795391930788890367 1.810255228996159537757649
3.484102091598465733568446 -0.01666666666666664908813544 1.818204183196928891419475
3.492051045799232866784223 -0.03102705853794140294921178 1.810255228996159537757649
3.474856151829804673525359 -0.001825212870656114580447671 1.826681364700460274974603
3.473559166261910746698049 0.0007687582651320047037041272 1.827209592003222526912509
3.4761531373976954917282 -0.03410209159846529919368763 1.810255228996158871623834
3.466138439363904755197154 -0.01926063780245476642072333 1.819788865105211872474911
3.459486470731028440184218 -0.03410209159846529225479372 1.811311683601680044830573
3.466907197629034431685113 0.01926063780245480111519285 1.818732410499690477223567
3.458189485163134513356908 0.03515854620398947694148717 1.81183991090444185267927
3.4761531373976954917282 0.03410209159846531307147544 1.810255228996158871623834
3.457420726898004836868949 0.005475638611958014330405309 1.812896365509963247930614
3.464841453796010828369845 -0.01301624092536478490000906 1.820317092407974124412817
3.457420726898004836868949 -0.0315081204626875971408495 1.812896365509963247930614
3.541961045109013106468865 0.001766270654083218483165751 1.809805225545068729786635
3.533922090218027722841043 -0.01666666666666665602702935 1.817844180436056333860506
3.541961045109013106468865 -0.03156706267925012132646856 1.809805225545068729786635
3.525204377752128692691258 -0.0007687582651324980156926081 1.825973136017262188346422
3.524525620177213713901665 0.0005887568846957488008855841 1.826063136707480438758466
3.525883135327041006945592 -0.03392209021802906204756667 1.809805225545068729786635
3.516576665976447024775098 -0.01802418181649490316886819 1.818114182506710863052035
3.50921646866037484358003 -0.03392209021802906204756667 1.809985226925505230610725
3.517165422861141088617387 0.01802418181649492051610295 1.817934181126274584272551
3.508537711085460308879647 0.03410209159846584736630604 1.810075227615723258978164
3.525883135327041006945592 0.03392209021802906898646057 1.809805225545068729786635
3.507948954200766245037357 0.002306274795392466384763575 1.810255228996159537757649
3.515897908401532934163924 -0.01512915013640670804095922 1.818204183196929335508685
3.507948954200766245037357 -0.03256457506820589764551244 1.810255228996159537757649
3.591953994375967518237758 0.001723966255802888373344084 1.809769971879834793426767
3.583907988751935835836093 -0.01666666666666666990481716 1.817815977503869362408295
3.591953994375967518237758 -0.03160936707753045360469457 1.809769971879834793426767
3.575280276976254612009143 -0.0005887568846958261045004823 1.825869033860950452208272
3.574698570824605070583857 0.0005746554186025364021478401 1.825876084593996750982114
3.57586198312790148889917 -0.03390798875193587469389911 1.809769971879835015471372
3.566659615933619242866826 -0.01783007896996503111042287 1.817837129703009368952848
3.559195316461234881444398 -0.03390798875193587469389911 1.809784073345928945286687
3.567234271352220265072219 0.01783007896996502764097592 1.817823028236916105271348
3.558613610309585340019112 0.03392209021802915919208132 1.80979112407897524406053
3.57586198312790148889917 0.03390798875193587469389911 1.809769971879835015471372
3.558038954890984761902928 0.001766270654083303918296943 1.809805225545068285697425
3.566077909781970589619959 -0.01548915289727918927209505 1.817844180436055889771296
3.558038954890984761902928 -0.03274457644864168376352964 1.809805225545068285697425
3.641993584392818839035044 0.001961506356910577494878645 1.809967921964091175368594
3.63398716878563821097714 -0.01666666666666664214924154 1.817974337571274690006362
3.641993584392818839035044 -0.03137182697642274670224438 1.809967921964091175368594
3.625366507743003730013243 -0.00057465541860222274245934 1.825941163161606484166555
3.624752262307549877107249 0.0006538354523055701309625087 1.825901573144754763688979
3.625980753178455362473187 -0.03398716878563885768205211 1.809967921964091619457804
3.616706256683517750616375 -0.01789515753757443816684969 1.817855567520720416752056
3.609314086511789199107625 -0.03398716878563885768205211 1.809888741930389288725678
3.617360092135820881509289 0.01789515753757448326966006 1.817934747554423413617997
3.608699841076334458023211 0.03390798875193560407703686 1.809849151913537568248103
3.625980753178455362473187 0.03398716878563887849873382 1.809967921964091619457804
3.608046005624031771219506 0.001723966255802620141726611 1.809769971879834571382162
3.616092011248063897710381 -0.01551735582946629256329008 1.81781597750386869627448
3.608046005624031771219506 -0.0327586779147352319396802 1.809769971879834571382162
3.692104806069878009111562 0.002628836419256506962138786 1.810524030349378588056197
3.684209612139755396498231 -0.01666666666666664561868849 1.818419224279505641561627
3.692104806069878009111562 -0.03070449691407682937804857 1.810524030349378588056197
3.675549361080268973012153 -0.0006538354523049098518394651 1.82620319653257401348867
3.674784303950906494407036 0.0008762788064218247994358046 1.826091974855515775999493
3.67631441820962923117122 -0.03420961213975511755469583 1.810524030349379920323827
3.666777888343724534081502 -0.01819678092539337571631464 1.818085559248332261361725
3.659647751542962623716448 -0.03420961213975511061580193 1.810301586995264999657707
3.667654167150143695863562 0.01819678092539342081912501 1.81830800260244829225087
3.658882694413599701022122 0.03398716878563828175385808 1.810190365318206762168529
3.67631441820962923117122 0.03420961213975513143248364 1.810524030349379920323827
3.658006415607180983329272 0.001961506356909982484726385 1.809967921964090509234779
3.666012831214362055476386 -0.01535899576206161548652673 1.817974337571274023872547
3.658006415607180983329272 -0.03267949788103322039667376 1.809967921964090509234779
3.742479751354718331413096 0.004878508128292477485921097 1.812398756773573982314929
3.734959502709435774647773 -0.0166666666666666664353702 1.81991900541886408859682
3.742479751354718331413096 -0.02845482520504085191537236 1.812398756773573982314929
3.726188029972892223895542 -0.0008762788064204706309223702 1.827064308779312584718468
3.724936805881630341730215 0.001626169376102992725208196 1.826689363494471418647436
3.727439254064148776990351 -0.0349595027094363255959486 1.812398756773576646850188
3.717041611951508173206093 -0.01916911484919013239358598 1.818794169564345253320425
3.710772587397482613624788 -0.0349595027094363255959486 1.811648866203899199689431
3.71866778132760522623812 0.01916911484919012198524513 1.819544060134025365016441
3.709521363306220287370252 0.03420961213975379222596018 1.811273920919058255663003
3.727439254064148776990351 0.0349595027094363186570547 1.812398756773577090939398
3.707895193930123234338225 0.002628836419255169924019677 1.810524030349377699877778
3.715790387860245846951557 -0.01491410905383196323914508 1.818419224279504087249393
3.707895193930123234338225 -0.03245705452691910464224634 1.810524030349377699877778
3.794798067076460057478471 0.01878840245872326342180259 1.823990335382261962493544
3.789596134152921180771045 -0.01666666666666666990481716 1.829192268305822377527647
3.794798067076460057478471 -0.01454493087461007291838477 1.823990335382261962493544
3.780449716131538018260017 -0.001626169376099865452461879 1.832075885507638446370038
3.776505231033694176545623 0.00626280081958878465098195 1.829757569785894100178325
3.784394201229368537298114 -0.03959613415292212446061626 1.823990335382269956099321
3.76898498238841073160188 -0.02455563686235531783985664 1.822237321140605548208669
3.767727534562702373932552 -0.03959613415292212446061626 1.81935370393879769501666
3.775247783207985818876296 0.02455563686235531783985664 1.826873952584085802897107
3.763783049464858088128949 0.03495950270943319615479794 1.817035388217053126780343
3.784394201229368537298114 0.03959613415292211752172236 1.823990335382269956099321
3.757520248645283444943743 0.004878508128289345442685221 1.812398756773572872091904
3.765040497290566889887486 -0.0134143279144771816746573 1.819919005418860979972351
3.757520248645283444943743 -0.03170716395724371139408504 1.812398756773572872091904
3.826009664617687100474086 -0.0187884024587693827801349 1.844798067076456549173713
3.820807731694158437818487 0.004141065027477311422110517 1.839596134152913453618794
3.826009664617687100474086 0.02707053251372401950214375 1.844798067076456549173713
3.815605798770614676129753 -0.03959613415291337451540343 1.834394201229357257432184
3.815605798770614676129753 0.03959613415291336063761563 1.834394201229357257432184
3.80520193292354225178542 0.0187884024587145030682489 1.823990335382257743646051
3.810403865847086013474154 -0.004141065027532205011784328 1.82919226830581393983266
3.80520193292354225178542 -0.0270705325137789026834767 1.823990335382257743646051
3.342789082352628060590405 0.006734494115768870775573518 1.863945411763140658223392
3.335578164705256032362968 -0.01666666666666671847707448 1.871156329410512464406224
3.342789082352628060590405 -0.02659883921756445515627298 1.863945411763140436178787
3.321156329410512419997303 -0.01217700392282016104428255 1.885578164705256298816494
3.313945411763141724037496 -0.03108850196140990410076377 1.892789082352628327043931
3.313945411763141279948286 0.006734494115769640992796852 1.892789082352628327043931
3.328367247057877342797383 -0.03557816470525645979883222 1.86394541176313333075143
3.313945411763134174520928 -0.03557816470525646673772613 1.878367247057877387206304
3.313945411763134174520928 0.03557816470525640428768099 1.878367247057877387206304
3.328367247057877342797383 0.03557816470525640428768099 1.863945411763133552796035
3.391933689731463363870034 0.0007365863772292660649476659 1.858802896645765923011595
3.383867379462926372468701 -0.01666666666666674276320315 1.867301982920077652039481
3.391933689731463363870034 -0.03259674695610406680579274 1.85880289664576570096699
3.374411630443626908260057 -0.002244831371931846515643816 1.876656461815559007177967
3.373022191692864879541958 0.0005340461295932855817492069 1.877511854436728189199357
3.375801069194388048799738 -0.03386737946292675549564422 1.859235672651538884281308
3.365811274045496848117409 -0.01944554416819185838072315 1.870300936789352164169031
3.359134402527720997255756 -0.03386737946292674161785641 1.861379233899643548255654
3.366345320175088140501884 0.01944554416819172654173897 1.868590151547020017375189
3.357744963776958968537656 0.03557816470526504321059136 1.862234626520813174366253
3.375801069194388048799738 0.03386737946292667916781127 1.859235672651539106325913
3.35721091764736812024239 0.006734494115777506229036931 1.863945411763144877070886
3.364421835294734819399309 -0.01217700392282093126150588 1.871156329410521124145816
3.35721091764736812024239 -0.03108850196141930283255661 1.863945411763144877070886
3.401053976652955945780832 -0.04874164890728591159607674 1.850683860185713403012642
3.400683860185714113555377 -0.04874164890728589771828894 1.850785130309531512082799
3.400683860185714113555377 0.04874164890728589771828894 1.850785130309532178216614
3.401053976652955945780832 0.04874164890728589771828894 1.850683860185714069146456
3.40136940848084146082897 -0.0480014159728016157058228 1.85062917554635686379072
3.401628467559956181531788 -0.0159264337321823670756693 1.851258351092713860808203
3.40136940848084146082897 0.01614854850843686073780248 1.850629175546357085835325
3.401258351092714349306334 -0.0164641264190307397285995 1.851359621216531969878361
3.400629175546357352288851 0.01561085582158849155431923 1.85083171579399285988643
3.400629175546357352288851 -0.04853910865964997795041214 1.850831715793992637841825
3.841903453617256047891715 0.001420721703531325433994548 1.859517268086275265659424
3.833806907234512451054798 -0.01666666666666664214924154 1.86761381446902197112081
3.841903453617256047891715 -0.0319126116298020026662563 1.859517268086275487704029
3.825303926859076941724425 -0.0003392940842041351681007688 1.875643220943281175294715
3.824897492866385029230969 0.0004735739011791490187669451 1.875576081034793896051838
3.824175919054518146822375 -0.02340304138746605866483463 1.863772053207445988931568
3.835640652797661420692066 -0.0338069072345124344014522 1.859043694185099404592165
3.821935739498677264691651 -0.007075668805003547563725608 1.872275033582881720306546
3.821935739498677264691651 0.007075668805003606544323791 1.872275033582881720306546
3.824175919054518146822375 0.02340304138746609335930415 1.863772053207445988931568
3.835640652797661420692066 0.03380690723451246215702781 1.859043694185098960502955
3.826009664617667116459643 -0.01878840245880962836477757 1.855201932923522978313713
3.820807731694118025700391 0.004141065027477340045047871 1.860403865847046533943399
3.826009664617667116459643 0.02707053251376429284236202 1.855201932923522978313713
3.818567552138277143569667 0.0003392940842041937692281917 1.868906846222481821229167
3.821529305505985352198195 -0.006262800819620263810538763 1.872207893674394441063669
3.892119617344661719471333 0.002717704067959849593277832 1.860598086723298516531599
3.884239234689323083671297 -0.01666666666666664561868849 1.868478469378641593223733
3.892119617344661719471333 -0.03061562926537348544586692 1.860598086723298516531599
3.875669114405400073053443 -0.0004735739011774377682680026 1.876142688306578154566751
3.874979376776816142324833 0.0009059013559897508872931216 1.875926524579172083306844
3.876358852033981783336003 -0.03423923468932303648681881 1.860598086723300514933044
3.866882830394072101398706 -0.01804614192383383053375212 1.867829978196426488068482
3.859692185367315175881231 -0.03423923468932303648681881 1.860165759268491481037699
3.867788731750059216807358 0.0180461419238338756365625 1.868262305651237298320666
3.859002447738731689241831 0.03380690723451081070027868 1.859949595541085187733188
3.876358852033981783336003 0.03423923468932305730350052 1.860598086723300514933044
3.858096546382744129743969 0.001420721703529683301384101 1.859517268086274377481004
3.866193092765488614759306 -0.01571951886431444123104484 1.867613814469020194763971
3.858096546382744129743969 -0.03285975943215858896540027 1.859517268086274599525609
3.943448524905181162836243 0.01069114943105962597935665 1.867242624525879080010782
3.936897049810362592126012 -0.01666666666666666296592325 1.873794099620711195441913
3.943448524905181162836243 -0.0226421839022737034219368 1.867242624525879080010782
3.928110765799035508649695 -0.0009059013559875803145438056 1.879016667155022801694031
3.925875956882527439972819 0.003563716477028708827512471 1.877687759594502292515017
3.930345574715535139631584 -0.03689704981036204256561462 1.867242624525883742947485
3.917995574227187915994364 -0.02113628449968295644478822 1.869807376939160104001303
3.913678908048868976266021 -0.03689704981036204256561462 1.864584809404853382730494
3.921559290704208056155267 0.02113628449968295644478822 1.872465192060195793288813
3.911444099132360907589145 0.03423923468932092012417812 1.863255901844333095596085
3.930345574715535139631584 0.03689704981036204256561462 1.867242624525883742947485
3.907880382655339879249823 0.00271770406795770330665718 1.86059808672329762835318
3.915760765310679847317488 -0.01485486395469654691270378 1.868478469378639816866894
3.907880382655339879249823 -0.03242743197735079713206474 1.86059808672329762835318
3.982784836423933771953898 -0.01066368848124515239517152 1.893448524905178675936668
3.976219630854199493796841 0.009566694662445179159204756 1.886897049810357218646573
3.982784836423933771953898 0.02979707780613550377468712 1.893448524905178675936668
3.969668155759377814462141 -0.03689704981035699105085257 1.88034557471552732366149
3.969668155759377814462141 0.03689704981035699798974647 1.88034557471552732366149
3.956551475094821856970384 0.01069114943105457966876504 1.867242624525875971386313
3.963102950189643536305084 -0.009539233712635738007823427 1.873794099620705866371395
3.956551475094821856970384 -0.02976961685632606435802927 1.867242624525876415475523
3.293042562707295672908003 0.008255376243777673428425601 1.915212813536482094889379
3.286085125414590635273271 -0.01666666666666666296592325 1.922170250829184023899643
3.293042562707295672908003 -0.02507795708955565944231481 1.915212813536482094889379
3.272170250829176119111708 -0.01116308250416135627869352 1.936085125414590546455429
3.265212813536467084674086 -0.03058154125208573104188758 1.943042562707295362045556
3.265212813536467084674086 0.008255376243763013280330121 1.943042562707295362045556
3.279127688121875827675922 -0.03608512541459103772911732 1.915212813536468994257689
3.265212813536461755603568 -0.03608512541459103772911732 1.92912768812187573885808
3.265212813536461755603568 0.03608512541459103772911732 1.929127688121875516813475
3.279127688121875827675922 0.03608512541459104466801122 1.915212813536468994257689
3.327462480779610931591606 0.0004352988153545456315347828 1.922972818035743047815345
3.326557714501320539568496 -0.002244831371934196198592026 1.924312883129387419245404
3.324059402774717675299598 -0.002751792081272897566579516 1.926811194855990949648117
3.32246585732640387078618 0.0004352988153545443304921758 1.927969441488949886576165
3.318442030575662560210048 -0.01934679685395538847880736 1.916197199203728995797746
3.312135879206575594935202 -0.03557816470526756202907848 1.907646216462718591344583
3.315508420033707270846435 -0.01985375756329408811207138 1.921012004196240186004729
3.308986281556362207822986 -0.0337686321486878326947334 1.911738073637622825629023
3.315943718849059251851941 0.01985375756329413321488175 1.918695510930332526200459
3.307392736108049291487987 0.0360851254146062755401303 1.912896320270581762557072
3.32025156313223401838286 0.01934679685395543358161774 1.915761900388377014792241
3.311231112928285647001303 0.03376863214868786045030902 1.908986281556362740730037
3.321156329410523966316759 -0.01666666666666664561868849 1.914421835294732421317576
3.313945411763147053108014 -0.02659883921755253066709912 1.907210917647366388294472
3.313945411763147053108014 0.00673449411578080914253519 1.907210917647366166249867
3.306957437292696866393271 0.008255376243792907769991629 1.915212813536489644405947
3.313914874585393910422226 -0.01116308250414668225281023 1.922170250829199567021988
3.306957437292697310482481 -0.03058154125208628962284685 1.915212813536490088495157
3.991965116238792354863563 0.001807931042723500770011413 1.909842814803931254630243
3.983930232477585153816335 -0.01666666666666668031315801 1.917869081760154248428307
3.991965116238792354863563 -0.03152540229060983578701638 1.909842814803930810541033
3.975431622311290880134038 -0.0003305536659220635630797303 1.925762175977212553590334
3.974967895906203807498969 0.0005968991442516207585056165 1.925629003238048086998901
3.978327486215233577127037 -0.02077218718714850947959505 1.915210805550677353181754
3.988415130236681704900548 -0.03393023247758498311954511 1.909237298854695286109973
3.973378862051049509318545 -0.00443607418640389224162579 1.923709415716971848908656
3.973378862051049509318545 0.004436074186403859281879747 1.923709415716971848908656
3.978327486215233577127037 0.02077218718714848866291334 1.915210805550677353181754
3.988415130236681704900548 0.03393023247758497618065121 1.909237298854695286109973
3.98281238397433057230046 -0.01060859338045169394937339 1.90657902264521839086342
3.976274725954992650400754 0.009566694662445161811969996 1.913158045290436648500076
3.98281238397433057230046 0.02974198270534202451220729 1.90657902264521839086342
3.971326101790808582592263 0.0003305536659220301154427091 1.921656655456731144226978
3.972915135645962436683476 -0.00350862137623020884161229 1.923576242977807382317224
4.042762293587266242411715 0.006573761523588746158441865 1.913811467936322063820853
4.035524587174532662459114 -0.01666666666666667337426411 1.921049174349060750799367
4.042762293587266242411715 -0.02675957180974457977340464 1.913811467936322063820853
4.026887060758996383924568 -0.000608386164406246468874806 1.927495446923402910854861
4.025487240756192797164204 0.002191253841199647910131798 1.926704013085006383931841
4.028277557631751548683496 -0.03552458717453299552602175 1.913802144806279637023749
4.017458100505063356422397 -0.01946630667227257360796244 1.918672002618705629828355
4.011610890965084053050305 -0.03552458717453300246491565 1.912216406914321042975757
4.019640031216214381970531 0.01946630667227255279128073 1.920248417380621575034638
4.010211070962281354468359 0.03394171949773956697971045 1.911424973075924516052737
4.028277557631751548683496 0.03552458717453299552602175 1.913802144806279637023749
4.008029140251129440741806 0.001819418062878094821677166 1.909848558314008570846454
4.016058280502258881483613 -0.01545563476819481266155698 1.91788056878030888086073
4.008029140251129440741806 -0.03273068759926770626700332 1.909848558314008570846454
4.086191799734177898528742 -0.006570493853087050820094284 1.942762293587265931549268
4.07895245948619056264306 0.01228742665477782283756092 1.935524587174531463418248
4.086191799734177898528742 0.0311453471626426982299396 1.942762293587265931549268
4.071714753073456094512039 -0.03552458717453153835830193 1.928286880761793442573548
4.071714753073456094512039 0.03552458717453153835830193 1.928286880761793442573548
4.057237706412735178673756 0.006573761523587292460168996 1.913811467936321619731643
4.064475412825469646804777 -0.01228415898427757946276273 1.921049174349059196487133
4.057237706412735178673756 -0.03114207949214244444680055 1.913811467936321619731643
3.278095712926101690243286 0.0006878416896782715405506137 1.972592128763575702876665
3.277063737730309345153046 -0.002751792081263303244714757 1.97431194564904655130988
3.268042350046020949605463 -0.01529098328731342062991594 1.984021175023011451798993
3.26005293755752534323733 -0.0326454916436583544858685 1.992010587511505725899497
3.26005293755752534323733 0.002063525069031517562845313 1.992010587511505725899497
3.269074325241812406517283 -0.02010630043760824187115688 1.966322533160549390629512
3.263148863144892608545433 -0.03608512541459663047760387 1.957645278982376613186034
3.260052937557523566880491 -0.03402117502301160723021667 1.976031762534514513163231
3.260052937557524010969701 0.03402117502301160029132276 1.976031762534514069074021
3.271138275633389547181196 0.02010630043760823840170993 1.965634691470874217955611
3.262116887949100263455193 0.03402117502301160029132276 1.959365095867847461619249
3.272170250829182336360645 -0.01666666666666666296592325 1.963914874585403369522396
3.265212813536470193298555 -0.02507795708956472163775331 1.956957437292701884601342
3.265212813536470193298555 0.008255376243768607763540146 1.956957437292701662556738
4.092313601277336232442394 0.003887774136019421945126284 1.961574172858683073883412
4.084627202554672820156156 -0.01666666666666667337426411 1.969257488345345752378535
4.092313601277336232442394 -0.0294455591973139182981889 1.961574172858683073883412
4.076111115613485935682547 -0.0003655072157069830869786931 1.976476622829192564267942
4.075281427394962463495176 0.001293869221339408182025466 1.976012441826376253573017
4.080698289794805866392835 -0.02014525217451076932739795 1.966221243134083751513685
4.090123981271391429004325 -0.03462720255467275493055368 1.96027722040134300129921
4.074371822859562897178876 -0.003844092723551078769061995 1.97473733007527041394269
4.074371822859563785357295 0.003844092723551077034338519 1.974737330075270635987295
4.080698289794805866392835 0.02014525217451076238850405 1.966221243134083751513685
4.090123981271391429004325 0.03462720255467274799165978 1.96027722040134300129921
4.086195068511525363419423 -0.006563956298393532236279402 1.957240975190080778389756
4.078958997040883716067583 0.01228742665477782630700787 1.964481950380161601188433
4.086195068511525363419423 0.03113880960794918051348645 1.957240975190080778389756
4.072632530105641635032043 0.000365507215706981081204674 1.972998037321348485662043
4.073542134641041201348344 -0.00218471628650468733742751 1.97427314907245432529237
4.138421716847028974939349 -0.00389393978356399744766847 1.992315656630593956322173
4.130737373477623819439941 0.01407070681095705030894116 1.984631313261187912644345
4.138421716847028974939349 0.0320353534054780980655508 1.992315656630593956322173
4.123053030108216887583694 -0.03463131326118772113087374 1.976945942421267199406998
4.123053030108217775762114 0.03463131326118771419197984 1.976945942421267199406998
4.107684343369405688406459 0.003891884842534392048574166 1.961576228211940442491823
4.115368686738811732084287 -0.01407276175198665657539721 1.969261599051861155729171
4.107684343369405688406459 -0.03203740834650770780145379 1.961576228211940442491823
3.275910453883747130987558 0.000445224388132348504552166 2.0245347705043852393203
3.275789145232972821020212 -0.0006878416896799652811844705 2.025101303543291653141978
3.267557115442930371074226 -0.01577621789040494978961782 2.033778557721465318763876
3.259446394303662231095586 -0.03288810894520396987950051 2.041889278860732126474886
3.259446394303661342917167 0.001335673164394067915020092 2.041889278860732570564096
3.267678424093703348773943 -0.01779973274447897713113065 2.016990582404022180895709
3.259810320255980276016317 -0.03402117502301329338143532 2.008434636876623269330366
3.259446394303660898827957 -0.03377855772146567958635899 2.025667836582195846517607
3.259446394303660898827957 0.03377855772146567958635899 2.025667836582195846517607
3.267921041395249748262586 0.01779973274447897713113065 2.016545358015892297487426
3.25968901160520596604897 0.03377855772146567958635899 2.009001169915529239062835
3.268042350046023614140722 -0.01666666666666666296592325 2.015978824976985883665748
3.26005293755752667550496 -0.03126980826430011961569733 2.007989412488492941832874
3.26005293755752667550496 0.002063525069033210652957866 2.007989412488492941832874
4.142964689065824046565467 0.007788134394946127393721813 2.014823445329121387459281
4.135929378131648626037986 -0.01666666666666664214924154 2.021858756263297696165182
4.142964689065824046565467 -0.02554519893838720634438033 2.014823445329121387459281
4.127407749330672004361986 -0.0003765909352871687283854929 2.027784340265959883709002
4.125921431463870803213467 0.002596044798316016199990486 2.026674613334445318457711
4.132684385840708074510985 -0.0205606913928379243794442 2.017315699101896786515908
4.14166670913796863828793 -0.03592937813164930049847356 2.012227400530806065148681
4.125460736967585972934103 -0.004270615661458451554899352 2.025837327902873852281118
4.125460736967586861112522 0.004270615661458527015370557 2.025837327902874296370328
4.132684385840708962689405 0.02056069139283797642114848 2.017315699101896786515908
4.14166670913796952646635 0.03592937813164932825404918 2.012227400530806065148681
4.138421716847028974939349 -0.003893939783564908611174227 2.007684343369405599588617
4.130737373477622931261521 0.01407070681095707806451678 2.015368686738811199177235
4.138421716847028974939349 0.03203535340547903481622782 2.007684343369405599588617
4.123513724604500829684639 0.0003765909352872439178061548 2.023890315539788264942445
4.123974419100784771785584 -0.001297979927855266897573916 2.024727600971359287029827
4.185176554670876569730353 -0.007788134394947688644850192 2.042964689065824845926045
4.178141243736701149202872 0.01147457707003468607709351 2.035929378131648981309354
4.185176554670875681551934 0.03073728853501705993167548 2.042964689065824845926045
4.171105932802525728675391 -0.03592937813164903682050522 2.028894067197472672603453
4.171105932802524840496972 0.03592937813164904375939912 2.028894067197472672603453
4.15703531093417399944201 0.007788134394945842899071753 2.014823445329120943370071
4.16407062186835030814791 -0.011474577070036528353425 2.021858756263297252075972
4.157035310934174887620429 -0.03073728853501889873856001 2.014823445329120943370071
3.275732137588260428628928 0.0005738264002551386484124452 2.074841688811994266927741
3.27579643859432145802657 -0.0004452243881330524228126522 2.075351214206188732447345
3.267814319467174044575586 -0.01551901386616171343857395 2.083907159733588532191106
3.259767899333965601726959 -0.03275950693308352090760138 2.091953579866793866415264
3.259767899333965601726959 0.001721479200760094030453473 2.091953579866793866415264
3.267750018461113015177943 -0.01768571745505485848237726 2.067304794072979845509508
3.259574996315782957623242 -0.03377855772146638735353719 2.058684547539519016368104
3.259767899333965601726959 -0.03390715973358847390439763 2.07586073960037964525327
3.259767899333965601726959 0.03390715973358847390439763 2.07586073960037964525327
3.267621416448991400471868 0.01768571745505485848237726 2.06673096767272745921673
3.259639297321844431110094 0.03390715973358847390439763 2.059194072933713037798498
3.267557115442930371074226 -0.01666666666666666990481716 2.066221442278533437786336
3.259446394303661342917167 -0.03199766016893856868108514 2.058110721139266630075326
3.259446394303661342917167 0.001335673164394772212751339 2.058110721139266630075326