# geometry NO_DATA 612
#  x  y  z
3.448901057526005065057007 0.04286842148135229513261635 1.893967363955345817316811
3.447802115052011728835168 -0.01666666666666666990481716 1.895335268266681527649098
3.448901057526005065057007 0.009535088148018969200769845 1.893967363955345817316811
3.443231864543108144971484 0.007526165648859950603466462 1.897802115052011462381643
3.439760556508198341418847 -0.02360928273648538883167092 1.8989010575260056867819
3.439760556508198341418847 0.03866161403420529524277427 1.8989010575260056867819
3.446798686895463426083097 -0.04780211505201201194203975 1.894331840110134113075446
3.442228436386560730397832 -0.04780211505201201194203975 1.896798686895464047807991
3.442228436386560730397832 0.04780211505201201194203975 1.896798686895464047807991
3.446798686895463426083097 0.04780211505201199806425194 1.894331840110134113075446
3.495297085793067637382592 0.02614084911140031677878603 1.880843763318332584333348
3.490594171586135274765184 -0.01666666666666668031315801 1.883367510348767925876245
3.495297085793067637382592 -0.007192484221933017826677847 1.880843763318332584333348
3.476409721539045705185345 -0.01170223342751212404488914 1.888111954966558148072409
3.466928185698888498222914 0.007260838252802331513335865 1.890332652553913250770279
3.489520251523642091484589 -0.04059417158613567999658756 1.882293590286274742595651
3.464445969079311016258771 -0.03562973834698111852414826 1.890348022388160575957272
3.472853584856975039940608 -0.04059417158613567999658756 1.887053404738312289978808
3.47533580147655252190475 0.03562973834698111158525435 1.887038034904064964791814
3.463372049016817832978177 0.04503556676084544130311826 1.889274102325666948587468
3.489520251523642091484589 0.04059417158613566611879975 1.882293590286274964640256
3.452482216619576327332197 0.04010187319018572449369486 1.892584089809762559752926
3.45496443323915380929634 0.01173297309600695483011723 1.892568719975515012521328
3.452482216619576327332197 -0.01663592699817181830290735 1.892584089809762559752926
3.535623691633523968391728 -0.002205488207276575483850589 1.871606897596170826503226
3.542811845816761451288812 0.01675153675958115234712054 1.871649332642628005274332
3.542811845816761895378022 -0.02116251317413427382452262 1.871649332642628005274332
3.525240611613258412404548 -0.02076962826745432783015488 1.872950253313067747740206
3.534480246596889863042179 -0.03562369163352439860315002 1.872753810859727696680466
3.51576209912982928784686 -0.03514593663392993200256242 1.875202104559128724048378
3.51576209912982928784686 0.0351459366339298973080929 1.875202104559128724048378
3.525240611613258412404548 0.02076962826745425497176889 1.872950253313067747740206
3.534480246596889863042179 0.0356236916335243639086805 1.872753810859727696680466
3.526384056649892517754097 -0.00181260330059662818844024 1.871803340049510655518361
3.52433257584949899410276 0.002290358300190995476108835 1.872042217549308107393813
3.514854063366069869545072 0.002213344191931280666163495 1.87429406879536930574659
3.507427031683035156817141 0.02069261415919454102918529 1.876307042541633052223915
3.507427031683035156817141 -0.01626592577533194847183573 1.87630704254163327426852
3.588628409028094878863158 -0.002668591909856080773844056 1.868370628350309647913718
3.594314204514047261795895 0.01929315045157265970376947 1.869683870242762724345198
3.594314204514047261795895 -0.02463033427128480390422283 1.869683870242762724345198
3.573856619752323382499526 -0.02713993261299139231335076 1.868561544057561807363754
3.584779048211438112758742 -0.03862840902809540344353678 1.86981634322841516748781
3.562875748571608713888281 -0.03851152358489598470647763 1.870106337801304530188418
3.562875748571608713888281 0.03851152358489595695090202 1.870106337801304530188418
3.573856619752323382499526 0.02713993261299134721054038 1.868561544057561807363754
3.584779048211438112758742 0.03862840902809538262685507 1.86981634322841516748781
3.577705980568979704514732 -0.005178190251562670050333725 1.867115829179456287789662
3.572469347595817357188253 0.005295075694762030674156428 1.867174271901056004097086
3.561488476415102688577008 -0.002205488207276562473424519 1.868719065644798948966354
3.555744238207550811381452 0.01963936871095275232823596 1.870205416666942399572804
3.555744238207551255470662 -0.02405034512550585645840329 1.870205416666942177528199
3.636713112661794866653509 -0.0003270755231991485240117257 1.871456682909938606940159
3.643356556330897610962438 0.01971937047192939135298317 1.872983034812570224403316
3.643356556330897610962438 -0.02037352151832767799266577 1.872983034812570224403316
3.623976541635260950613429 -0.02386214290975107246706166 1.870596762306799831776516
3.634217723425905877121522 -0.03671311266179520804708858 1.8723410730025114023789
3.613953318637696643378376 -0.03714903024795586372608369 1.870952356016102768876408
3.613953318637696643378376 0.03714903024795583597050808 1.870952356016102768876408
3.623976541635260506524219 0.02386214290975103430314519 1.870596762306799831776516
3.634217723425905877121522 0.03671311266179519416930077 1.8723410730025114023789
3.626471930871149940145415 -0.003815696914622542131045879 1.86971237221422725838238
3.622874192749607757946251 0.003379779328461842216602129 1.869494413421146861153943
3.612850969752043006621989 -0.00266859190985607903912058 1.86985000713044957620923
3.60642548487602176976452 0.01781377167143311651686943 1.870423559632832688492954
3.60642548487602176976452 -0.02315095549114525377842888 1.870423559632832466448349
3.693195096669819044166161 0.02371031219948306623113155 1.880515215529664274640709
3.686390193339637466607428 -0.01666666666666669072149887 1.880050252769559948617939
3.693195096669819044166161 -0.009623021133850268374332337 1.880515215529664274640709
3.676860731331706766411571 -0.002392257349194059148911329 1.879252988680900848805777
3.674136172653958087863657 0.003056860006304029132861988 1.87892068735234585297178
3.685912698483164717799809 -0.03639019333963740276960408 1.879572757913087421854925
3.666998967995221736515532 -0.02211578402216477293174002 1.877561020916149292503405
3.669246031816498110345037 -0.03639019333963740276960408 1.877415827388231761574389
3.676383236475234017603952 0.02211578402216473129837659 1.878775493824428099998158
3.666521473138748987707913 0.03572559068252734171267093 1.877083526059676543695787
3.685912698483165161889019 0.03639019333963737501402846 1.879572757913086977765715
3.657137204658735818441073 0.01873184849266154583524724 1.875869053151397736201034
3.664274409317472169789198 -0.0003270755231991545955438916 1.877228719587594074624803
3.657137204658735818441073 -0.01938599953905983247492983 1.875869053151397736201034
3.747144590854762924436727 0.03746019672917317439031493 1.890315605874409943254477
3.744289181709526292962664 -0.01666666666666666296592325 1.890874689219349535918013
3.747144590854762924436727 0.004126863395839843254297996 1.890315605874409943254477
3.731721415248827611321758 -0.008468866254732056869647394 1.890190281503558944464771
3.722009057933364672976495 0.01095584837619304266476128 1.888946790442828316258783
3.743003602243388350245823 -0.04428918170952637900494864 1.889589109753211371156567
3.717910157727397191251839 -0.03609138129759177637811973 1.886705750078718546447476
3.726336935576721742791051 -0.04428918170952637900494864 1.886663661673310787847413
3.730435835782689224515707 0.03609138129759176250033192 1.888904702037420779703325
3.716624578261259248534998 0.04180219958806537239315304 1.88542017061258038168603
3.743003602243388350245823 0.04428918170952637900494864 1.889589109753211815245777
3.70409890020596765936034 0.02912231844791106707970307 1.883221218653878148430181
3.708197800411934696995786 0.003986785526512345509408952 1.885462259017987918241488
3.70409890020596765936034 -0.02114874739488637259143822 1.883221218653878148430181
3.782421203721078484250029 -0.01585792468741896096839916 1.898279128408497218316597
3.768791909247792837334146 0.01403366546290957424247825 1.896558256816994969540247
3.782421203721078484250029 0.04392525561323810945335566 1.898279128408497218316597
3.767071037656290144468585 -0.04655825681699519991152414 1.894864635918320772134393
3.767071037656290144468585 0.04655825681699519991152414 1.894864635918320772134393
3.751720871591502248776351 0.03972927183664198835799652 1.891450143428144103907584
3.753441743183004497552702 0.00983768168631345835128954 1.893143764326818301313438
3.751720871591502248776351 -0.02005390846401507165541744 1.891450143428144103907584
3.395016732486048738337558 0.01948584451094052816255697 1.924469112024891792600556
3.390033464972097565492959 -0.0166666666666666525575824 1.929759654741519003806616
3.395016732486048738337558 -0.01384748882239281164707734 1.924469112024891792600556
3.378024242842683211307531 -0.007351777592161650755342439 1.940033464972097387857275
3.370998288227220474055912 -0.03071857589759244278049266 1.945016732486049004791084
3.370998288227220474055912 0.01601502071326912218784955 1.945016732486048782746479
3.388100526876169915624359 -0.0400334649720974350417535 1.927826716645591353938016
3.376091304746755561438931 -0.0400334649720974419806474 1.938100526876169737988675
3.376091304746755561438931 0.04003346497209746279732911 1.938100526876169737988675
3.388100526876169915624359 0.04003346497209745585843521 1.927826716645590909848806
3.419369080059505794366714 -0.04483736152226017179778239 1.907272663901742548731022
3.407272663901742326686417 -0.04483736152226017179778239 1.913665520337830772135135
3.407272663901742326686417 0.04483736152226017179778239 1.913665520337830772135135
3.419369080059505794366714 0.04483736152226015791999458 1.907272663901742548731022
3.426774151554396130592295 -0.02064452920673354174851966 1.902581319238869861365515
3.417259054635503279229169 0.007526165648859953205551676 1.905162638477740033593477
3.426774151554396130592295 0.03569686050445344815962301 1.902581319238869861365515
3.405162638477739811548872 -0.003880953794490266898359332 1.91155549491382825699759
3.40258131923887008341012 0.02428974106110323716301025 1.915367032111046308173741
3.40258131923887008341012 -0.03205164865008376662292022 1.915367032111046308173741
3.799712095364164987643107 -0.01604814297914201881578578 1.900597166479595756527488
3.799856047682082405003712 0.01699728571835736404271877 1.900762476005441126147844
3.799856047682082405003712 -0.04909357167664141208263118 1.900762476005441126147844
3.798539547080203693241174 -0.04971209536416605623276865 1.900453214161678783256093
3.798539547080204137330384 0.04971209536416605623276865 1.900453214161678783256093
3.798395594762286719969779 -0.01666666666666666990481716 1.900287904635833413635737
3.797223046478325869657056 0.01374576082707562076079544 1.900143952317916440364343
3.797223046478325869657056 0.04707909416040895883570627 1.900143952317916440364343
3.8451303075560869793037 -0.006795587235937196497748136 1.909805232159277110781659
3.847565153778043089971561 0.02166805365348366957389814 1.912305925652685534288366
3.847565153778043089971561 -0.03525922812535806083467094 1.912305925652685534288366
3.814836876275641941447248 -0.04473191504373409677075557 1.903039902052888310279855
3.831304346686132067389963 -0.04513030755608753163965474 1.907776245512076584986971
3.800605055830931888749546 -0.04960160748764656790665839 1.900914317674694320459139
3.800605055830931888749546 0.04960160748764656790665839 1.900914317674694320459139
3.814836876275642385536457 0.04473191504373409677075557 1.903039902052888310279855
3.831304346686132067389963 0.04513030755608753163965474 1.907776245512076584986971
3.828662837145596853360985 -0.01626827415431322809702408 1.905068888700088836074542
3.814630212957063282175341 0.01179697422275420050363781 1.902833238734309206918738
3.80039839251235278538843 -0.01604814297914201881578578 1.900707654356115217098022
3.800199196256175859787163 0.01688679784183787918605546 1.900817719943701078477716
3.800199196256175859787163 -0.04898308380012192375652091 1.900817719943701078477716
3.885572247193601391757056 0.004405175903468647874428044 1.924963674091466403481832
3.892786123596800429425002 0.02331075643040349948398315 1.928285718973334894599247
3.892786123596800429425002 -0.01450040462346619853095664 1.928285718973334894599247
3.87314680904056318766493 -0.02305227712942872070334133 1.92090789518029514404418
3.883553490675143216037668 -0.03557224719360152498381922 1.925183831433276537836718
3.863694018777095173788894 -0.03748002993582719849507967 1.918629558492460418506198
3.863694018777095173788894 0.03748002993582719155618577 1.918629558492460418506198
3.87314680904056274357572 0.02305227712942870335610657 1.92090789518029514404418
3.883553490675143216037668 0.03557224719360151110603141 1.925183831433276537836718
3.875165565559021363384318 -0.00414669660249387603268012 1.920687737838485009689293
3.871972760327640372679525 0.002238913860268164791184065 1.919733846467372107014171
3.862519970064172358803489 -0.00679558723593720777345073 1.917455509779537381476189
3.856259985032086223810666 0.01401777603322332602098221 1.916131064462816002702539
3.856259985032086223810666 -0.02760895050509772769009587 1.916131064462816002702539
3.935453128957830504219828 -0.01146363722296082562901454 1.946916766180790903106868
3.922351415207728564382705 0.01570322847195423227040223 1.943833532361582072667261
3.935453128957830060130618 0.04287009416686929363926595 1.946916766180790903106868
3.919268181388519511898494 -0.04383353236158173127368087 1.940786020799192046482062
3.919268181388519511898494 0.04383353236158172433478697 1.940786020799192046482062
3.90308323381920896366637 0.03157204159838371271273871 1.934655275417592967812652
3.906166467638418016150581 0.004405175903468652211236734 1.937702786979982771953246
3.90308323381920896366637 -0.02276168979144641002498872 1.934655275417593189857257
3.345978569488745169024924 0.01954442792241127546670754 1.973565858433665498594678
3.341957138977491581499635 -0.01666666666666666990481716 1.980750783449951146764079
3.345978569488745169024924 -0.01378890541092205913875635 1.973565858433665498594678
3.333913673191752025104506 0.0005797350951864179433373203 1.991957138977491270637188
3.329891637917266056234666 -0.02471073721563840988602045 1.995978569488745524296291
3.329891637917266056234666 0.02587020740601125162738683 1.995978569488745524296291
3.340085422799108805236301 -0.04195713897749149545735037 1.978879067271568814589955
3.332041957013368804751963 -0.04195713897749149545735037 1.990085422799108716418459
3.332041957013368804751963 0.04195713897749149545735037 1.990085422799108716418459
3.340085422799108805236301 0.04195713897749149545735037 1.978879067271568814589955
3.359432103177265815929786 -0.04679676989192031039133113 1.954774658640014095567494
3.354774658640013118571233 -0.04679676989192030345243722 1.960234969779140357104552
3.354774658640013118571233 0.04679676989192030345243722 1.960234969779140357104552
3.359432103177265815929786 0.04679676989192031039133113 1.954774658640013651478284
3.360916504128545145846374 -0.03748188081741530425228248 1.951601615054040284036319
3.357860674645332110799245 -0.007351777592161668102577199 1.953203230108079946347743
3.360916504128545145846374 0.02277832563309197325129851 1.951601615054040284036319
3.353203230108079413440691 -0.005746044388413554422634366 1.958663541247206651974011
3.351601615054039307040057 0.02438405883684008346179439 1.962522237332293251199644
3.351601615054039307040057 -0.03587614761366718363344575 1.962522237332293251199644
3.949819408535159670492476 -0.01626413749089750115928155 1.950381856052725737526998
3.949909704267580146108685 0.01688860437759485966235928 1.950492824908189648525081
3.949909704267580146108685 -0.04941687935938988279760409 1.950492824908189648525081
3.949427985170223642796827 -0.04981940853515902378756408 1.950291560320305039866184
3.949427985170223642796827 0.04981940853515904460424579 1.950291560320305039866184
3.949337689437803167180618 -0.01666666666666664561868849 1.950180591464841128868102
3.94894626607286713948497 0.01552263700711328971160174 1.950090295732420431207288
3.94894626607286713948497 0.04885597034044662084761868 1.950090295732420431207288
3.992718996473295423044192 -0.001595111742223388837796927 1.964816780988926314677201
3.996359498236647489477491 0.02445721806440527557047204 1.968712056687795808329611
3.996359498236647489477491 -0.02764744154885207666483282 1.968712056687795808329611
3.963506317512116794432586 -0.04241172222335848340790676 1.954120654372154763933622
3.980019347053815437220692 -0.04271899647329533561412873 1.961502794709407915263455
3.950480152608803141589533 -0.04969272575006315056933559 1.950681417196686640025405
3.950480152608802697500323 0.04969272575006317832491121 1.950681417196686640025405
3.963506317512116794432586 0.04241172222335853891905799 1.954120654372154541889017
3.980019347053814549042272 0.04271899647329534255302264 1.961502794709407915263455
3.976205966931597224345296 -0.01635939241672980382080738 1.957434640651673163347368
3.963333439153251536168909 0.009385663139962049580922177 1.953947776013289061580736
3.950307274249937439236646 -0.01626413749089748728149374 1.950508538837821603806333
3.95015363712496903048077 0.0167619215924989933830247 1.950556166300737581664748
3.95015363712496903048077 -0.0492901965742940095793756 1.950556166300737581664748
4.033440449977017117078049 -0.01170000960884352327051605 1.995140459585860392976997
4.024009535609717858051226 0.0119142428962106632084339 1.990280919171720785953994
4.033440449977017117078049 0.03552849540126485489155428 1.995140459585860392976997
4.019149995195578028983618 -0.04028091917172085811849058 1.986009570381415345607934
4.019149995195578028983618 0.04028091917172085811849058 1.986009570381415345607934
4.004859540414138940889188 0.02201914076283078072759913 1.976878681176970298238871
4.009719080828277881778376 -0.001595111742223408570276466 1.981150029967275738584931
4.004859540414138940889188 -0.02520936424727760263864162 1.976878681176970520283476
3.31134684963407943669722 -0.03568342904302072848832239 2.047030278677100412210166
3.310128006801388966806599 -0.008289538355486307866226703 2.044060557354201002056016
3.31134684963407988078643 0.01910435233204812316420984 2.047030278677100856299376
3.319849576212423603038815 -0.0411379759574867429061662 2.011226375331496285525645
3.314196096654396406222531 -0.03519853331168783239224496 2.024923320675263926915477
3.313953648788729999807856 -0.04406055735420109226163632 2.037158975320674247910802
3.314196096654396406222531 0.03519853331168783239224496 2.024923320675263926915477
3.313953648788729555718646 0.04406055735420109226163632 2.037158975320673803821592
3.319849576212423603038815 0.0411379759574867429061662 2.011226375331496285525645
3.32167741378311021094305 -0.02389157419563365039594238 2.004431012021256286459447
3.317485224923439890432064 0.0005797350951864236896088345 2.008862024042513017008105
3.32167741378311021094305 0.02505104438600649907620266 2.004431012021256286459447
3.311831745365412693615781 0.01072722402086775939089591 2.022558969386280214308726
3.310370454667055373221274 -0.007804642624153408300702317 2.031824902708790681060691
4.048608606712783775094522 -0.01308541053852954778868867 2.003182021351285424515254
4.049304303356391798729419 0.01885652950758655993501733 2.004276952771745889947397
4.049304303356391798729419 -0.04502735058464565898184162 2.004276952771745445858187
4.046928091471163391190657 -0.04860860671278277589379968 2.002486324707676956791147
4.046928091471163391190657 0.04860860671278277589379968 2.002486324707676956791147
4.04623239482755536755576 -0.01666666666666666296592325 2.001391393287216935448214
4.044551879585934983651896 0.01052284960899344153084645 2.000695696643608467724107
4.044551879585934983651896 0.04385618294232677266686338 2.000695696643608467724107
4.077181799113782645349602 0.003188017720291923349368313 2.026006218606509978741315
4.078481912847110812947449 -0.0005877902536367470573766547 2.027894122593473902327332
4.084324885824231365916148 0.01227373620787886206173756 2.036521351053625750182619
4.088867745068023751287001 -0.007580948179079708207361854 2.043260675526812786273467
4.088867745068023751287001 0.03212842059483739243219702 2.043260675526813230362677
4.074973381037363395762441 -0.007604853873131146337061015 2.024385590783726929231534
4.066346152577211547907154 -0.02368373028616102549115396 2.018136780641280214609878
4.074397543630752238641435 -0.03652135105362519507110619 2.028384636924214223796525
4.066346152577211547907154 0.0236837302861610810023052 2.018136780641280214609878
4.074397543630752238641435 0.03652135105362523670446961 2.028384636924214667885735
4.074973381037363395762441 0.007604853873131225266979172 2.024385590783726929231534
4.073673267304035228164594 -0.003829045899202476472417134 2.022497686796763005645516
4.071464849227615090399013 0.0005877902536368256620341599 2.020877058973979956135736
4.062837620767464130722146 -0.01308541053852952870673043 2.01462824883153324151408
4.056418810383732420632441 0.007410302027339632849334272 2.010000066511869576402205
4.056418810383732420632441 -0.03358112310439870934475337 2.010000066511869132312995
3.3176083838236616330164 -0.02875337307902831734951477 2.096361756902689776893567
3.314261556557795529442956 -0.002696525940314730557245682 2.092723513805379909058502
3.3176083838236616330164 0.02336032119839885970447035 2.096361756902689776893567
3.311865387251698322756965 -0.0447124814202388490280704 2.057676823096107998622983
3.311315066193417866458049 -0.03743599522561911335793994 2.07070524666546473824269
3.315656377266713583651381 -0.04272351380538025322763929 2.084728154042250647393075
3.311315066193417866458049 0.03743599522561910641904603 2.0707052466654651823319
3.315656377266713583651381 0.04272351380538025322763929 2.084728154042251091482285
3.311865387251698766846175 0.0447124814202388490280704 2.057676823096108442712193
3.311020887601060724847457 -0.03633535310905849219365038 2.052643759289880520668703
3.309476082735351543107072 -0.008289538355486307866226703 2.05528751857976121897309
3.311020887601061168936667 0.01975627639808587993064393 2.052643759289880520668703
3.308925761677071086808155 0.00939018047204692035689888 2.068315942149117958592797
3.309920245484500256338833 -0.01137914808690552483094738 2.078700606428593999908117
4.098282446355528740866703 -0.01010966632416197830135474 2.05499605381572303386406
4.099141223177763748708458 0.02150611336470054785197092 2.05741577716474033366012
4.099141223177763748708458 -0.0417254460130245113935743 2.05741577716474033366012
4.096944757948370430256091 -0.04828244635552919605814282 2.054137276993487581933095
4.096944757948369542077671 0.04828244635552919605814282 2.054137276993487581933095
4.096085981126134534235916 -0.01666666666666666296592325 2.051717553644470726226245
4.094748292718976223625305 0.01055618256340801891512982 2.050858776822235274295281
4.094748292718976223625305 0.04388951589674135178587022 2.050858776822235274295281
4.119727721477244308800891 -0.02618117378710541759412322 2.095908895264350313425439
4.116000517842095085541132 -0.00103004992507027765338834 2.091817790528701426211455
4.119727721477244308800891 0.02412107393696487356304914 2.095908895264350313425439
4.111909413106446642416358 -0.04181779052870181201395638 2.082520728768936013608482
4.111909413106446642416358 0.04181779052870180507506248 2.082520728768936457697691
4.104091104735648087853406 0.01504145753787315686889059 2.069132562273522157880734
4.108182209471297419156599 -0.01010966632416199391386602 2.078429624033287126394498
4.104091104735648087853406 -0.03526079018619713428828177 2.069132562273522157880734
3.337780554566505575309066 0.01648758029786249676429399 2.128707025731355617637064
3.343755962506649304089024 -0.00453676441757529941289917 2.139219198089074680524391
3.349771962496296495714887 0.01656876439686830182473898 2.149820913631196095394671
3.349812554545799514471582 -0.01658548256766084055824351 2.149910456815598003288414
3.349812554545799514471582 0.04972301136139747890219098 2.149910456815598003288414
3.343752184365608393079583 -0.03769101138210444179588166 2.13921541994803376951495
3.334160131246520109016274 -0.03787009775090859758917006 2.122638296465768625864712
3.349768184355255584705446 -0.04982091363119584004337526 2.14981713549015474029602
3.349768184355255584705446 0.04982091363119579841001183 2.14981713549015474029602
3.334163909387561020025714 0.03769101138210442791809385 2.122642074606809980963362
3.340135539186663837796232 0.04982091363119581228779964 2.133150468823487688752039
3.328188501447416847156546 -0.01666666666666664561868849 2.112129902249090918076035
3.324571856268472291873195 -0.01482642818940610798805757 2.106064951124545281402334
3.324571856268472291873195 0.01850690514392722488268284 2.106064951124545281402334
4.136965308784785300133535 0.01039581019199012704157248 2.12343050140720501772762
4.138779512036384389261912 -0.00676740368879013860087257 2.132012108347594914192769
4.140080555174165510834428 0.009369489964351673111364605 2.143729143525323177499331
4.139567395060346655100147 -0.01769298689430513424336588 2.146864571762661544340745
4.139567395060346655100147 0.03643196682300848393554205 2.146864571762661544340745
4.13661165300340272210633 -0.03382988054744694161879437 2.129844249314612802947977
4.130898722944872147877504 -0.04010073702212345325701648 2.116313010885284118245409
4.137912696141182955500426 -0.04372914352532347725954764 2.141561284492341066254539
4.137912696141182955500426 0.04372914352532347725954764 2.141561284492341066254539
4.133066581977854703211506 0.03382988054744691386321875 2.11848086991826667357941
4.1327129261964721251843 0.04372914352532347725954764 2.124894617825674458799767
4.13125237872625383772629 -0.01666666666666668378260496 2.109899262977876333025051
4.1273536519193250171611 -0.01092931290294682500352508 2.104949631488937988876842
4.12735365191932412898268 0.02240402043038650786721533 2.104949631488937988876842
3.349960255213988435940564 -0.01655322620500648822527978 2.150096465016841484896304
3.349980127606994262379203 0.01674036234231564279628657 2.150133312854666023383743
3.349980127606994262379203 -0.04984681475232861230795223 2.150133312854666023383743
3.349931176472095373242155 -0.0499602552139887939874896 2.150076592623835658457665
3.349931176472094485063735 0.0499602552139887870485957 2.150076592623835658457665
3.349911304079089546803516 -0.01666666666666666990481716 2.150039744786011119970226
3.349882225337195595926687 0.01652901961085713120058749 2.150019872393005737620797
3.349882225337195595926687 0.04986235294419046060188094 2.150019872393005737620797
3.388285535606354592630396 -0.005351137790686548087459862 2.1936366733970400488829
3.378687757707615535451851 0.01525554233672847710689968 2.187273346794081252397746
3.388285535606354592630396 0.03586222246414350056653575 2.1936366733970400488829
3.372324431104657183055906 -0.03727334679408168816028279 2.177026726961203806354206
3.372324431104657183055906 0.03727334679408168816028279 2.177026726961204250443416
3.356363326602958885302996 0.00405345392240854217325019 2.160416780525367563825512
3.362726653205918125877361 -0.01655322620500648128638588 2.170663400358244565779842
3.356363326602958885302996 -0.03715990633242150648074542 2.160416780525367563825512
4.145267454300723741766888 0.01464511535785142579135787 2.169377661057126260857331
4.146117563668750172212185 -0.01294489662179938369024335 2.183172667046951787028775
4.146226723847652451127033 0.0131632169796028989511294 2.197978448691184638619234
4.145485774658528299596583 -0.0181485650449151846019813 2.198989224345591964038249
4.145485774658528299596583 0.04447499900412097556534619 2.198989224345591964038249
4.145151643104224348235221 -0.04425667864631747244752447 2.18220674648242596305181
4.142513830407474451078542 -0.0462782299551327130915368 2.166550855470167125105263
4.145260803283126627150068 -0.04797844869118474131486352 2.197012528126658814642269
4.145260803283126627150068 0.04797844869118475519265132 2.197012528126658370553059
4.143479750972000275055507 0.04425667864631747938641837 2.167516776034692504993018
4.14336393977550088152384 0.04797844869118474131486352 2.180345861459992207187497
4.142629641603974732788629 -0.01666666666666665602702935 2.153721770044866978821574
4.140841938275251266077248 0.005647719919484414652366411 2.151860885022433667046471
4.140841938275251266077248 0.03898105325281774058421291 2.151860885022433667046471
3.399501586885861570408451 -0.0153993202355198616215759 2.201132086329711690098065
3.39975079344293096283991 0.01743559998367467250846019 2.201516552988215913444492
3.39975079344293096283991 -0.04823424045471439575161199 2.201516552988215913444492
3.399045231277961764959628 -0.04950158688586119015706544 2.200882879772642297666607
3.399045231277961764959628 0.04950158688586120403485324 2.200882879772642741755817
3.398796024720891928438959 -0.0166666666666666594964763 2.200498413114138518409391
3.398339669112992567079345 0.01475712922258968530508927 2.200249206557068681888722
3.398339669112992567079345 0.0480904625559230095022123 2.200249206557068681888722
3.435399996663914379269045 0.009083988146694024420901847 2.227475330742764825231461
3.442699998331956834363154 0.02781731814394256679934259 2.233050656481402995723329
3.442699998331956834363154 -0.009649341850554538774220603 2.233050656481402995723329
3.41342540555284701397909 -0.0315225795100215130939425 2.211358742222265139076853
3.428153363642566731073202 -0.03539999666391520360964051 2.222295361051998430212961
3.404058740554223305707637 -0.04612258284610629838207174 2.204692413769795855671418
3.404058740554223305707637 0.04612258284610632613764736 2.204692413769795855671418
3.41342540555284701397909 0.03152257951002156166619983 2.211358742222265139076853
3.428153363642566731073202 0.03539999666391522442632223 2.222295361051998430212961