# geometry NO_DATA 616
#  x  y  z
3.483921845235912417848567 0.01548964286150799479768736 1.932156309528174187306604
3.491960922617955986879679 0.0327448214307539883782816 1.94019538691021797838232
3.491960922617955986879679 -0.00176553570773797536413996 1.940195386910218200426925
3.471156353853706466594531 -0.02461237537555158866320326 1.94576872922925869779931
3.466925083082965208802761 0.0002584164162988273065642286 1.94153745845851699591833
3.471156353853706466594531 0.02512920820814929651065839 1.94576872922925869779931
3.483044840649185402980947 -0.01764367765953760852637444 1.932456328746606111224082
3.491572423527664170705975 -0.0339218452359126565465175 1.940395399722505853645771
3.478648522135303622349056 -0.02525929088214209222718054 1.936852647260487447766764
3.478971979888598742292061 -0.0415374584585171402473236 1.945380230138966881625606
3.478648522135303622349056 0.02525929088214200896045369 1.936852647260487447766764
3.478971979888599186381271 0.04153745845851708473617236 1.945380230138966881625606
3.483044840649185402980947 0.01764367765953756689301102 1.932456328746605667134872
3.491572423527664614795185 0.03392184523591263572983578 1.940395399722505631601166
3.475394262357433206034329 -0.0003884990902916407497919016 1.924217238552274444884915
3.474905756860997563251203 0.00058851190257927835612628 1.924317244958418271494338
3.470509438347115782619312 0.008204125125183724109856342 1.928713563472300052126229
3.466601625329670088859757 -0.0003884990902916750647906607 1.933009875580038006148698
3.534101673973227608627212 0.0151299853868783473753723 1.93179665205354500479018
3.542050836986613493451159 0.03256499269343915425878322 1.939745815066931555747942
3.542050836986613493451159 -0.002305021919682482493124676 1.939745815066931555747942
3.532834735799411873813369 -0.0180235192091401097425063 1.932066395159517391277859
3.54146232508403402405861 -0.03410167397322746984933417 1.939925643804246258028456
3.524117232146130707093334 -0.03392184523591263572983578 1.940195386910218644516135
3.524117232146130707093334 0.0339218452359126565465175 1.940195386910218644516135
3.532834735799411873813369 0.01802351920914015137586972 1.932066395159517391277859
3.54146232508403446814782 0.03410167397322749760490979 1.939925643804246258028456
3.525474084688604126114342 -0.000588511902579279657168887 1.923937403408816138039583
3.524795658417367860693048 0.0007683406398941878276756534 1.924027317777473600202143
3.516078154764087138062223 0.01548964286150803990049774 1.932156309528174631395814
3.508039077382044013120321 0.03274482143075400919496332 1.940195386910218200426925
3.508039077382044013120321 -0.001765535707737952379053903 1.940195386910218644516135
3.584127093282764242587746 0.01507914676780270669953499 1.931745813434468939107092
3.592063546641381499568979 0.03253957338390135733963149 1.939682266793086640177535
3.592063546641381499568979 -0.002381279848295979502392772 1.939682266793086640177535
3.582577702348206827309696 -0.01822876725599278935341374 1.931783942398775710813652
3.591295206001487549940521 -0.03412709328276532227963713 1.939707686102624339952172
3.573847489040158365014577 -0.03410167397322746984933417 1.939745815066931111658732
3.573847489040158365014577 0.03410167397322750454380369 1.939745815066931111658732
3.582577702348206827309696 0.01822876725599285527290583 1.931783942398775710813652
3.591295206001487549940521 0.03412709328276535003521275 1.939707686102624339952172
3.575409589629483519956921 -0.0007683406398941040188477203 1.923822069730620754057782
3.574628539334820942485749 0.0007937599494320484979151265 1.923834779385389381900495
3.56589832602677159201221 0.01512998538687835778371316 1.93179665205354500479018
3.557949163013385707188263 0.03256499269343916119767712 1.939745815066931555747942
3.557949163013385263099053 -0.002305021919682476855273379 1.939745815066931555747942
3.634013344908503029273561 0.01530664351632563847938062 1.931973310182992342731723
3.642006672454251248183255 0.0326533217581628162906604 1.939966637728740339596811
3.642006672454250804094045 -0.002040034725511521984664398 1.939966637728740339596811
3.632482699196769804217411 -0.01814043819126918283268779 1.931802687621600123080157
3.641212912504818710601739 -0.03401334490850384251192651 1.939852889354479081873706
3.623809360075851415672332 -0.03412709328276533615742494 1.939682266793086640177535
3.623809360075850527493913 0.03412709328276532227963713 1.939682266793086640177535
3.632482699196769804217411 0.01814043819126915160766522 1.931802687621600123080157
3.641212912504819598780159 0.0340133449085038286341387 1.939852889354478637784496
3.625283131600453678800022 -0.0007937599494320217181214661 1.923923108450113605982779
3.624546245838152547236177 0.0006800115751704821024509195 1.923866234262982866098923
3.615872906717234158691099 0.01507914676780265812727766 1.931745813434469383196301
3.607936453358616013531446 0.03253957338390132958405587 1.939682266793086640177535
3.607936453358616013531446 -0.002381279848296003788521435 1.939682266793086640177535
3.683871311730706921139245 0.01559070987192015880773432 1.932257376538586868264247
3.691935655865353993476674 0.03279535493596007211802856 1.940321720673233496512466
3.691935655865353993476674 -0.001613935192119752767836438 1.940321720673233496512466
3.682582305169264547117791 -0.01788465663921042642092729 1.932044326771890752070249
3.69125564429018293566287 -0.03387131173070657974566444 1.940179687495436233746204
3.673979982637244123822029 -0.0340133449085038355730326 1.939966637728740339596811
3.673979982637244123822029 0.0340133449085038286341387 1.939966637728740339596811
3.682582305169264547117791 0.01788465663921040907369253 1.932044326771890752070249
3.69125564429018293566287 0.03387131173070657280677054 1.940179687495436233746204
3.675197972609788088504956 -0.0006800115751705176642821771 1.924122015815040942499081
3.674588977623516772297307 0.0005379783973732358160618761 1.92405099922614231111595
3.665986655091495904912335 0.01530664351632564541827453 1.931973310182991898642513
3.657993327545747241913432 0.03265332175816282322955431 1.939966637728740339596811
3.657993327545747241913432 -0.002040034725511519382579184 1.939966637728740339596811
3.733752536657722664870107 0.01583397351985035492183407 1.932497783435535687601714
3.741876268328861332435054 0.03291984351090614796531142 1.940624371857655683371036
3.741876268328861332435054 -0.001251896471205435736398504 1.940624371857655683371036
3.732739606948902277849811 -0.01762384838842902951006053 1.932320403624512517026801
3.741341929480921812967154 -0.03375253665772245947884755 1.940506379583124552112849
3.724196671953374337959985 -0.03387131173070656586787663 1.940325360222667328002899
3.724196671953374337959985 0.03387131173070656586787663 1.940325360222667550047504
3.732739606948902277849811 0.01762384838842902951006053 1.932320403624512517026801
3.741341929480921812967154 0.03375253665772246641774146 1.940506379583124330068244
3.725150214125703129752765 -0.000537978397373239719189697 1.924311807476923430471061
3.724671623264821818111159 0.0004192033243891244397028029 1.924252419940431391154334
3.716128688269293878221333 0.01559070987192016401190475 1.932257376538586424175037
3.708064344134647249973114 0.03279535493596006517913466 1.940321720673233274467862
3.708064344134647249973114 -0.001613935192119737155325154 1.940321720673233496512466
3.777625295746061873103372 0.004613400936342843677850922 1.926988105190280631262567
3.779772698575288192301969 -0.000318595277890594400817259 1.929454103297397526972645
3.775965010713195013636323 -0.00729678044629549025362758 1.937946734269676341000377
3.770009920021875959861291 -0.02857684804930498562169916 1.943973367134838037273425
3.770009920021875959861291 0.01398328715671401378806138 1.94397336713483825931803
3.777262112962247009306793 -0.005339766503972672752331707 1.926943517684356566022075
3.768769481989968639368271 -0.0216878378927487514005179 1.935019802083226991840093
3.765324976911689880409995 -0.03794673426967616614025047 1.943557020561430093152921
3.768769481989968639368271 0.02168783789274875833941181 1.935019802083226991840093
3.765324976911689880409995 0.03794673426967616614025047 1.943557020561430093152921
3.777262112962247009306793 0.005339766503972692701651681 1.926943517684356566022075
3.775114710133021134197406 -0.000407770289739233806301788 1.924477519577239670311997
3.774751527349206270400828 0.0003185952778906140790866897 1.924432932071315160982294
3.766258896376927456373096 0.01583397351985036533017492 1.932509216470185808844917
3.758129448188463506141943 0.03290841047625628346118276 1.940630088374980743992637
3.758129448188463506141943 -0.001240463436555555836598996 1.940630088374980743992637
3.383532182038823776792924 0.01529512958413356202291844 1.982448716086576689932031
3.391766091019411621942936 0.03216064495629043784585832 1.990195705231388334510712
3.391766091019411621942936 -0.001570385788023312065297965 1.990195705231388334510712
3.390548020220653047118731 -0.001193747108758401367228918 1.991741767329411105791337
3.382661359116209354169769 0.01562312088339738030962067 1.983483534658822655671884
3.390548020220653047118731 0.03243998887555316068542766 1.991741767329411105791337
3.383183148744074664193704 -0.01692760277962534337659051 1.982984300038584501990613
3.391547525781142269352131 -0.03353218203882354225831008 1.990662908534385211467566
3.383008623728584574053002 -0.01687895539962424792945761 1.9831588250540739259975
3.390851227874017048691258 -0.03348353465882245028062414 1.991523202091141309111322
3.383008623728584129963792 0.01687895539962424446001066 1.9831588250540739259975
3.390851227874017936869677 0.03348353465882245028062414 1.991523202091141309111322
3.383183148744074220104494 0.01692760277962533990714356 1.982984300038584279946008
3.391547525781142269352131 0.03353218203882354225831008 1.990662908534385211467566
3.375167805001756171634497 -6.208740746846899021850474e-05 1.974770107590775980455078
3.375037336945276855715292 0.000198848705490203587088055 1.974838488239786915556806
3.37486281192978676557459 0.0001502013254891101728342312 1.975013013255276561608298
3.374818754970775991353094 -6.208740746846899021850474e-05 1.975119157621755272558062
3.441537458458516773873725 0.0002584164162988481232459403 1.966925083082965652891971
3.445768729229258031665495 0.02512920820814930691899924 1.971156353853707132728346
3.445768729229258031665495 -0.02461237537555157478541545 1.971156353853707132728346
3.436172787642002734997959 -0.02571253062779866455089817 1.977968662516818909580252
3.444926990393309740312588 -0.04153745845851711943064188 1.978518740142942267112858
3.423737391746077385334956 -0.03417507216928154095691994 1.98971828987147780765099
3.423737391746077385334956 0.03417507216928156177360165 1.98971828987147780765099
3.436172787642002734997959 0.02571253062779865761200426 1.977968662516819131624857
3.444926990393310184401798 0.04153745845851709167506627 1.978518740142942711202068
3.432783255707209324469886 -0.0008417388359482415880266637 1.966375005456841851270156
3.428260323726643576947026 0.00820412512518378135573105 1.970056198601459751529319
3.415824927830718227284024 0.01529512958413358283960015 1.981805825956118427555452
3.407912463915359069233091 0.03280353508674846430004379 1.989874260166159203322422
3.407912463915359069233091 -0.002213275918481315100716511 1.989874260166159203322422
3.471156353853706466594531 -0.04153745845851712636953579 1.962693812312224395100202
3.462693812312223506921782 -0.04153745845851712636953579 1.971156353853707132728346
3.462693812312223506921782 0.04153745845851709861396017 1.971156353853707132728346
3.471156353853706910683741 0.04153745845851709861396017 1.962693812312224395100202
3.471156353853706466594531 -0.0246123753755515713159685 1.954231270770741435427453
3.466925083082965208802761 0.0002584164162988573931745151 1.958462541541482915263828
3.471156353853706910683741 0.0251292082081493173273401 1.954231270770741435427453
3.458462541541482693219223 0.0002584164162988550621398443 1.966925083082965652891971
3.454231270770740991338243 0.0251292082081493103884462 1.971156353853707132728346
3.454231270770740991338243 -0.0246123753755515713159685 1.971156353853707132728346
3.788041935479166344435953 0.007249462374998835723083346 1.973916129041665579180176
3.79402096773958286135553 0.02862473118749933945204056 1.979895161302081874055148
3.79402096773958286135553 -0.01412580643750164025029825 1.979895161302081874055148
3.782039244183101889262844 -0.03804193547916716322543351 1.967937096781249284305204
3.782039244183101889262844 0.0380419354791671493476457 1.967937096781249284305204
3.776060211922685372343267 -0.01666666666666668378260496 1.961958064520832767385627
3.770057520626620917170158 -0.01925484496712833934473075 1.955979032260416250466051
3.770057520626620917170158 0.01407848836620499179128618 1.955979032260416250466051
3.834458956036410626211364 0.01441542126051151284649166 1.981082087927177770581011
3.842229478018205135469998 0.03220771063025575781102461 1.988852609908972723928855
3.842229478018205135469998 -0.003376868109232723444423918 1.988852609908972723928855
3.826833241466121027229974 -0.02250089151557807878867301 1.975707618763043571519233
3.837520875872371561854379 -0.03445895603641091486935011 1.985269630466216073116925
3.817937096781248929033836 -0.03804193547916716322543351 1.979895161302081874055148
3.817937096781248929033836 0.0380419354791671493476457 1.979895161302081874055148
3.826833241466121027229974 0.02250089151557804756365044 1.975707618763043571519233
3.837520875872371561854379 0.0344589560364109009915623 1.98526963046621629516153
3.823771321630160091586959 -0.004708602145833844232480914 1.971520076224005046938714
3.820854209205704510310397 0.001125622703077542099969754 1.969728586502627054599657
3.81195806452083241211426 0.00724946237499883398835987 1.973916129041665357135571
3.805979032260415895194683 0.02862473118749933598259361 1.979895161302081874055148
3.805979032260415895194683 -0.01412580643750164025029825 1.979895161302081874055148
3.883860575136103499005458 0.01562130617532931503577132 1.98228341128489415901015
3.891930287568052371227623 0.03281521464476631205764434 1.990357685273943966208776
3.891930287568052371227623 -0.00157260229410770995851776 1.990357685273943966208776
3.881917900714682012619505 -0.0183195311725145373871193 1.981390658911911240025461
3.890814045399554110815643 -0.03386057513610367386558408 1.989764123351114522009198
3.873320946479963389208478 -0.03445895603641087323598668 1.988861990443552274498984
3.873320946479963389208478 0.0344589560364109009915623 1.988861990443552274498984
3.881917900714682012619505 0.01831953117251458595937663 1.981390658911911240025461
3.890814045399554110815643 0.0338605751361036946822658 1.989764123351114744053802
3.87496443045123140080932 -0.001125622703077516512798484 1.973909946845690654981809
3.874137998198307730746137 0.0005272418027703763398345016 1.973610756395537180196698
3.86554104396358910733511 0.01441542126051154407151422 1.981082087927178214670221
3.857770521981794153987266 0.0322077106302557508721307 1.988852609908972723928855
3.857770521981794153987266 -0.003376868109232684413145709 1.988852609908972723928855
3.926866945523734830914009 0.003097553520474678398488599 1.976230607996740218368359
3.92825663790222368021432 -0.0003181687634967363402689611 1.977938469138726063079048
3.922931492047244894649793 -0.01033212294646010734333608 1.986430886853807642467018
3.916216653813777703874166 -0.03009634313360139493132017 1.993215443426903599188904
3.916216653813777703874166 0.009432097240681112590432456 1.993215443426903821233509
3.926453371096887412505794 -0.003924702374169005206216987 1.976135202333389573325917
3.917960953381805389028614 -0.0202732002773388722549619 1.984104939802803002635301
3.913049381953674910050722 -0.03643088685380788810386221 1.992692763181234782976503
3.917960953381805389028614 0.02027320027733899715505217 1.984104939802803002635301
3.913049381953674021872303 0.03643088685380795055390735 1.992692763181235449110318
3.926453371096887412505794 0.00392470237416919342371413 1.976135202333389795370522
3.925063678718398563205483 -0.0005089800901975909553504041 1.974427341191403950659833
3.924650104291551144797268 0.0003181687634969242325054528 1.974331935528053749706601
3.916157686576469565409298 0.01562130617532935146496431 1.982301672997466734926775
3.908078843288235404429543 0.03279695293219367369097483 1.990366816130230365189391
3.908078843288235404429543 -0.001554340581535031910048739 1.990366816130230365189391
3.388350759741771245359132 -0.003979088309874211776273611 2.042329848051645413420374
3.38068060779341639232598 0.01401394112675054433314603 2.034659696103290560387222
3.388350759741771245359132 0.03200697056337530044256567 2.042329848051644969331164
3.390181980014792095801113 -0.03397527584015954532636883 2.02403708623976008595946
3.381707238188114139632034 -0.01863497194345096336087764 2.03303360095807228447029
3.389035180004903224926238 -0.03465969610329142774896027 2.041687905544818715242172
3.381707238188114139632034 0.01863497194345096336087764 2.03303360095807228447029
3.389035180004903224926238 0.03465969610329142081006637 2.041687905544819159331382
3.390181980014792983979532 0.03397527584015954532636883 2.02403708623976008595946
3.390302149629984107548353 -0.001685488290095497280335346 2.00801236207991973259368
3.382169617934871475029013 0.01562312088339738030962067 2.01602472415983946518736
3.390302149629984107548353 0.03293173005689025573117235 2.00801236207991973259368
3.373694876108193518859935 0.00132636276995808728880466 2.025021238878151663698191
3.373352665976627751120986 -0.0006419425068262095282825563 2.026005391516543685526131
3.936523685705940245327383 0.0102859619214530437908417 2.026952628588119864616601
3.943261842852969767392324 0.0301429809607265293547318 2.033690785735149386681542
3.943261842852970211481534 -0.009571057117820417486919737 2.033690785735148942592332
3.929762448046407286028625 -0.03652368570594015373398378 2.020214471441089010284031
3.929762448046406397850205 0.03652368570594012597840816 2.020214471441089898462451
3.923024290899376431696055 -0.01666666666666669419094582 2.013476314294059488219091
3.916263053239843916486507 -0.02380843724052005005997756 2.00673815714702996615415
3.916263053239843916486507 0.009524896092813291484380223 2.00673815714702996615415
3.984070469821772153551365 0.01519239368978854767822106 2.031859060356455248808061
3.992035234910885854731077 0.03259619684489427349216584 2.039823825445568949987774
3.992035234910885854731077 -0.002211409465317141706530712 2.039823825445568949987774
3.978916373018643426462404 -0.02059415552771248769658996 2.028179236530203599642164
3.988844882538279623673816 -0.03407046982177239918820888 2.037370609561401479936649
3.970214471441090076098135 -0.03652368570594009128393864 2.033690785735149830770752
3.970214471441090076098135 0.03652368570594007046725693 2.033690785735149830770752
3.978916373018642538283984 0.02059415552771242871599178 2.028179236530203599642164
3.988844882538279623673816 0.03407046982177235755484546 2.037370609561401479936649
3.974141960302135956339953 -0.003190352372606797444476445 2.022667687325257368513576
3.972178215871613460308254 0.0007371364884390014821785586 2.021441079383173633488013
3.963476314294060109943985 0.01028596192145304899501213 2.026952628588119864616601
3.956738157147030143789834 0.03014298096072647384358056 2.033690785735149830770752
3.956738157147030143789834 -0.009571057117820356771598078 2.033690785735149386681542
4.02599062446987776553442 0.001370238004578779814762735 2.02537961353470041814262
4.026522990738373053432042 -0.000305505467588990825035522 2.026217485270784379736142
4.01940714267582333008022 -0.01392619065750899144673358 2.034703571337912020311478
4.011758928344780095187616 -0.03196309532875443726318565 2.042351785668956143382502
4.011758928344780095187616 0.004110714013736457839165439 2.042351785668956143382502
4.025469303491863826138797 -0.002412879960606782638737888 2.025163798024275596532107
4.016983217424735741474251 -0.01877404115968446182693974 2.032912747602964476101306
4.010388690340201733874892 -0.0347035713379121174559927 2.041614649180517382376365
4.016983217424735741474251 0.01877404115968445835749279 2.032912747602964032012096
4.010388690340200845696472 0.0347035713379121174559927 2.041614649180516938287155
4.025469303491863826138797 0.002412879960606777868248329 2.025163798024275152442897
4.024936937223369426419595 -0.0007371364884390117820991972 2.024325926288192079027795
4.024415616245354598845552 0.000305505467588986217176289 2.024110110777766813328071
4.015929530178227402359425 0.01519239368978858584213754 2.031859060356455248808061
4.007964765089113257090503 0.03259619684489426655327193 2.039823825445568949987774
4.007964765089113257090503 -0.002211409465317091399549909 2.039823825445568949987774
3.389678298881266371722631 -0.002386041342479711894336569 2.0920643402237466546012
3.38174263910501249341678 0.01507597243834683797825136 2.084128680447492776295348
3.389678298881266815811841 0.03253798621917339262132884 2.0920643402237466546012
3.388350759741771245359132 -0.03465969610329139305449075 2.073010455845063049196142
3.38094611562131541759868 -0.01878837655078461135738088 2.081741462735476222434272
3.389147283225468321177232 -0.03412868044749321760900074 2.090737977453788420945102
3.38094611562131541759868 0.01878837655078460788793393 2.081741462735476222434272
3.389147283225467877088022 0.03412868044749321760900074 2.090737977453788420945102
3.388350759741771245359132 0.03465969610329139305449075 2.073010455845063049196142
3.388350759741771245359132 -0.003979088309874184888059734 2.057670151948354231308258
3.38068060779341639232598 0.01401394112675054259842256 2.0653403038967086402522
3.388350759741771245359132 0.03200697056337527268699006 2.057670151948354231308258
3.373275963672960564565528 0.0007953471141598761730631684 2.07407131078712181349033
3.373541471500859589838228 -0.001326362769958064737399472 2.075132165729180577784518
4.034703571337912464400688 0.01393359782952621923890479 2.080596560910184411596902
4.042351785668956587471712 0.03197050250077169974982638 2.088248478827236631616415
4.042351785668956587471712 -0.00410330684171925866993158 2.088248478827236631616415
4.027055357006869229508084 -0.03470357133791214521156832 2.072948346579140288525878
4.027055357006868341329664 0.03470357133791214521156832 2.072948346579140732615087
4.01940714267582421825864 -0.0166666666666666664353702 2.065296428662088068506364
4.011758928344780095187616 -0.02922261931959684727599935 2.05764821433104438952455
4.011758928344780095187616 0.004110714013736485594741055 2.05764821433104438952455
4.075605886474612304937182 0.0006207115222465962563538899 2.075014825047633681975867
4.075768476878991464218416 -0.0002955307134890767508869636 2.075472946165501930693154
4.06791342930765154051187 -0.01541456442919141370251346 2.083954044855579557093961
4.05989579133193245752409 -0.03270194261810470404139295 2.091977022427789378866692
4.05989579133193245752409 0.001872813759721894200441228 2.091977022427789378866692
4.074780414671800521375644 -0.002271655127868729955736837 2.074484883958311876028802
4.066299315981723339064047 -0.01864279108104634208320505 2.081599448229819238065375
4.059269740213194310740619 -0.0339540448555799706520375 2.090610488009219558591667
4.066299315981723339064047 0.01864279108104630391928858 2.081599448229819682154584
4.059269740213194310740619 0.03395404485557995677424969 2.090610488009219558591667
4.074780414671800521375644 0.002271655127868664469925619 2.074484883958311876028802
4.07461782426742225027283 -0.001355412892133056948495984 2.074026762840443627311515
4.073792352464611354889712 0.0002955307134890112108656368 2.07349682175112182136445
4.065311253774533284399695 0.01393359782952619842222308 2.080611386022630071579442
4.057655626887266997471215 0.03195567738832590098940756 2.088255891383459683652291
4.057655626887266997471215 -0.004088481729273482460917943 2.088255891383459239563081
3.392514786053333786242092 0.005088716320004110955921295 2.112573930266670174660248
3.385029572106668105391236 -0.01666666666666666990481716 2.120059144213336299600314
3.392514786053333786242092 -0.0282446170133292262516278 2.112573930266670174660248
3.376529177860387420651023 -0.000334121825894182899064494 2.126863299686282182676678
3.375513997560773304940085 0.001696238773334706687739848 2.126182241212561940812975
3.382988432048760873982474 -0.01915825255416125569296604 2.1171171124962544496384
3.391719438939174047220604 -0.03502957210666804432896981 2.110877691493335817085608
3.375283384916640372352958 -0.002825707713388767548801095 2.125617506742534690289403
3.375283384916640372352958 0.002825707713388770584567178 2.125617506742534690289403
3.382988432048760873982474 0.01915825255416125569296604 2.1171171124962544496384
3.391719438939174047220604 0.03502957210666804432896981 2.110877691493335372996398
3.389678298881266815811841 -0.002386041342479709725932224 2.107935659776253523034484
3.381742639105013381595199 0.01507597243834684144769831 2.115871319552506513161916
3.389678298881266815811841 0.03253798621917339262132884 2.107935659776253523034484
3.374037591972892435876474 0.0003341218258941856637800338 2.124371713798787197902129
3.374268204617025368463601 -0.0007953471141598777993664271 2.124936448268814448425701
3.437426069733329203614858 -0.005088716320004255805331539 2.142514786053333786242092
3.429940855786663522764002 0.01327418911999717933414278 2.135029572106667661302026
3.437426069733329203614858 0.031637094559998621412511 2.142514786053333786242092
3.422455641839997841913146 -0.03502957210666810677901495 2.12754435816000198045117
3.422455641839997841913146 0.03502957210666810677901495 2.12754435816000198045117
3.407485213946666036122224 0.00508871632000417774277512 2.112573930266670174660248
3.41497042789333171697308 -0.01327418911999726780504005 2.120059144213335855511104
3.407485213946666036122224 -0.03163709455999870467923785 2.112573930266670174660248
4.076389159648752702480579 0.001522658908285205378585481 2.125133499259532321445931
4.076836574005589852731646 -0.0006278301946101773767933141 2.12620874381098001748569
4.06971198448323701057916 -0.01362134885009620710594191 2.134855992241618594107422
4.062139980604046129997187 -0.03181067442504810494074974 2.142427996120808586510975
4.062139980604046129997187 0.004567976724855713280271097 2.142427996120808586510975
4.069260495464970261991766 -0.01881715576956207586212244 2.118632665270359538567391
4.060791883796231793724019 -0.03396116352794349008137331 2.109538002482883811694592
4.06213590594261653166086 -0.03485599224161858855630669 2.127279913700998115189122
4.06213590594261741983928 0.03485599224161856080073107 2.127279913700998115189122
4.068367962336852272642318 0.01881715576956202728986511 2.117114081023503846523681
4.061239298153069832153506 0.03485599224161856773962498 2.11061324703433150773435
4.067920547980014234212831 -0.01666666666666669419094582 2.116038836472056150483922
4.05989935066811380437457 -0.03145340090124793680503856 2.108019418236027675561672
4.05989935066811380437457 0.001879932432085403004595747 2.108019418236027675561672
3.44224504478838833065879 0.003470268730331946271938648 2.161225223941943163197266
3.434490089576777371860317 -0.01666666666666666990481716 2.168980179153554566084949
3.44224504478838833065879 -0.02986306460300138312935481 2.161225223941943163197266
3.425984837655907000453226 -0.0003438371750741122116930282 2.176328674830980691723425
3.425234540946648031933819 0.001156756243443949347740607 2.175922215296795858563428
3.431367353295052602391024 -0.01951966168344532528977631 2.166396925401720796600102
3.44054880601505397308415 -0.0344900895767772802669171 2.160068467698499361517861
3.424558340147517476736994 -0.003196832191852768626644243 2.174902177322591612096403
3.424558340147517476736994 0.00319683219185276125406947 2.174902177322591612096403
3.431367353295052602391024 0.0195196616834453183508824 2.166396925401720796600102
3.44054880601505397308415 0.0344900895767772802669171 2.160068467698498917428651
3.437426069733329203614858 -0.005088716320004187283754238 2.157485213946666036122224
3.429940855786663522764002 0.01327418911999718106886625 2.16497042789333171697308
3.437426069733329203614858 0.03163709455999855202357196 2.157485213946666036122224
3.423131842639128397109971 0.0003438371750741048391182553 2.173475679814202088380171
3.423808043438258508217586 -0.001696238773334707121420717 2.174495717788406778936405
3.490236946151338059962654 -0.002008098637050547124321964 2.192245044788387886569581
3.481750905893086667219904 0.01581532427306005933465016 2.184490089576776927771107
3.490236946151338059962654 0.03363874718317068357453792 2.192245044788387886569581
3.473995950681474376153801 -0.03449008957677729414470491 2.176735134365165524883423
3.473995950681474376153801 0.0344900895767772663891293 2.176735134365165524883423
3.457754955211611136434158 0.003470268730331934562555185 2.161225223941943163197266
3.465509910423222539321841 -0.01435315417977869358046039 2.168980179153554121995739
3.457754955211611136434158 -0.03217657708988929526894296 2.161225223941943163197266
4.078108397552132835528482 0.00317147728769683751037789 2.175063079735562343586253
4.078932806741837779895832 -0.001522658908285181092456817 2.177410147833553466512058
4.073009621242059452583817 -0.01032371209127291508678148 2.186504810621029637474066
4.066262026552575292726033 -0.03016185604563639821584786 2.19325240531051424142106
4.066262026552575292726033 0.009514431863090545490879713 2.19325240531051424142106
4.072185212052354508216467 -0.02136080286264866248679972 2.170662553144068418475854
4.063788798983457795088725 -0.03485599224161853304515546 2.160743481166886859057286
4.066262026552575292726033 -0.03650481062103012180886097 2.179757215931545033527073