/*--------------------------------*- C++ -*----------------------------------*\
| =========                 |                                                 |
| \\      /  F ield         | OpenFOAM: The Open Source CFD Toolbox           |
|  \\    /   O peration     | Version:  v2012                                 |
|   \\  /    A nd           | Website:  www.openfoam.com                      |
|    \\/     M anipulation  |                                                 |
\*---------------------------------------------------------------------------*/
FoamFile
{
    version     2.0;
    format      ascii;
    class       volScalarField;
    location    "2.2";
    object      alpha.water;
}
// * * * * * * * * * * * * * * * * * * * * * * * * * * * * * * * * * * * * * //

dimensions      [0 0 0 0 0 0 0];


internalField   nonuniform List<scalar> 
96000
(
0
0
0
0
0
0
0
0
0
0
0
0
0
0
0
0
0
0
0
0
0
0
0
0
0
0
0
0
0
0
0
0
0
0
0
0
0
0
0
0
0
0
0
0
0
0
0
0
0
0
0
0
0
0
0
0
0
0
0
0
0
0
0
0
0
0
0
0
0
0
0
0
0
0
0
0
0
0
0
0
0
0
0
0
0
0
0
0
0
0
0
0
0
0
0
0
0
0
0
0
0
0
0
0
0
0
0
0
0
0
0
0
0
0
0
0
0
0
0
0
0
0
0
0
0
0
0
0
0
0
0
0
0
0
0
0
0
0
0
0
0
0
0
0
0
0
0
0
0
0
0
0
0
0
0
0
0
0
0
0
0
0
0
0
0
0
0
0
0
0
0
0
0
0
0
0
0
0
0
0
0
0
0
0
0
0
0
0
0
0
0
0
0
0
0
0
0
0
0
0
0
0
0
0
0
0
0
0
0
0
0
0
0
0
0
0
0
0
0
0
0
0
0
0
0
0
0
0
0
0
0
0
0
0
0
0
0
0
0
0
0
0
0
0
0
0
0
0
0
0
0
0
0
0
0
0
0
0
0
0
0
0
0
0
0
0
0
0
0
0
0
0
0
0
0
0
0
0
0
0
0
0
0
0
0
0
0
0
0
0
0
0
0
0
0
0
0
0
0
0
0
0
0
0
0
0
0
0
0
0
0
0
0
0
0
0
0
0
0
0
0
0
0
0
0
0
0
0
0
0
0
0
0
0
0
0
0
0
0
0
0
0
0
0
0
0
0
0
0
0
0
0
0
0
0
0
0
0
0
0
0
0
0
0
0
0
0
0
0
0
0
0
0
0
0
0
0
0
0
0
0
0
0
0
0
0
0
0
0
0
0
0
0
0
0
0
0
0
0
0
0
0
0
0
0
0
0
0
0
0
0
0
0
0
0
0
0
0
0
0
0
0
0
0
0
0
0
0
0
0
0
0
0
0
0
0
0
0
0
0
0
0
0
0
0
0
0
0
0
0
0
0
0
0
0
0
0
0
0
0
0
0
0
0
0
0
0
0
0
0
0
0
0
0
0
0
0
0
0
0
0
0
0
0
0
0
0
0
0
0
0
0
0
0
0
0
0
0
0
0
0
0
0
0
0
0
0
0
0
0
0
0
0
0
0
0
0
0
0
0
0
0
0
0
0
0
0
0
0
0
0
0
0
0
0
0
0
0
0
0
0
0
0
0
0
0
0
0
0
0
0
0
0
0
0
0
0
0
0
0
0
0
0
0
0
0
0
0
0
0
0
0
0
0
0
0
0
0
0
0
0
0
0
0
0
0
0
0
0
0
0
0
0
0
0
0
0
0
0
0
0
0
0
0
0
0
0
0
0
0
0
0
0
0
0
0
0
0
0
0
0
0
0
0
0
0
0
0
0
0
0
0
0
0
0
0
0
0
0
0
0
0
0
0
0
0
0
0
0
0
0
0
0
0
0
0
0
0
0
0
0
0
0
0
0
0
0
0
0
0
0
0
0
0
0
0
0
0
0
0
0
0
0
0
0
0
0
0
0
0
0
0
0
0
0
0
0
0
0
0
0
0
0
0
0
0
0
0
0
0
0
0
0
0
0
0
0
0
0
0
0
0
0
0
0
0
0
0
0
0
0
0
0
0
0
0
0
0
0
0
0
0
0
0
0
0
0
0
0
0
0
0
0
0
0
0
0
0
0
0
0
0
0
0
0
0
0
0
0
0
0
0
0
0
0
0
0
0
0
0
0
0
0
0
0
0
0
0
0
0
0
0
0
0
0
0
0
0
0
0
0
0
0
0
0
0
0
0
0
0
0
0
0
0
0
0
0
0
0
0
0
0
0
0
0
0
0
0
0
0
0
0
0
0
0
0
0
0
0
0
0
0
0
0
0
0
0
0
0
0
0
0
0
0
0
0
0
0
0
0
0
0
0
0
0
0
0
0
0
0
0
0
0
0
0
0
0
0
0
0
0
0
0
0
0
0
0
0
0
0
0
0
0
0
0
0
0
0
0
0
0
0
0
0
0
0
0
0
0
0
0
0
0
0
0
0
0
0
0
0
0
0
0
0
0
0
0
0
0
0
0
0
0
0
0
0
0
0
0
0
0
0
0
0
0
0
0
0
0
0
0
0
0
0
0
0
0
0
0
0
0
0
0
0
0
0
0
0
0
0
0
0
0
0
0
0
0
0
0
0
0
0
0
0
0
0
0
0
0
0
0
0
0
0
0
0
0
0
0
0
0
0
0
0
0
0
0
0
0
0
0
0
0
0
0
0
0
0
0
0
0
0
0
0
0
0
0
0
0
0
0
0
0
0
0
0
0
0
0
0
0
0
0
0
0
0
0
0
0
0
0
0
0
0
0
0
0
0
0
0
0
0
0
0
0
0
0
0
0
0
0
0
0
0
0
0
0
0
0
0
0
0
0
0
0
0
0
0
0
0
0
0
0
0
0
0
0
0
0
0
0
0
0
0
0
0
0
0
0
0
0
0
0
0
0
0
0
0
0
0
0
0
0
0
0
0
0
0
0
0
0
0
0
0
0
0
0
0
0
0
0
0
0
0
0
0
0
0
0
0
0
0
0
0
0
0
0
0
0
0
0
0
0
0
0
0
0
0
0
0
0
0
0
0
0
0
0
0
0
0
0
0
0
0
0
0
0
0
0
0
0
0
0
0
0
0
0
0
0
0
0
0
0
0
0
0
0
0
0
0
0
0
0
0
0
0
0
0
0
0
0
0
0
0
0
0
0
0
0
0
0
0
0
0
0
0
0
0
0
0
0
0
0
0
0
0
0
0
0
0
0
0
0
0
0
0
0
0
0
0
0
0
0
0
0
0
0
0
0
0
0
0
0
0
0
0
0
0
0
0
0
0
0
0
0
0
0
0
0
0
0
0
0
0
0
0
0
0
0
0
0
0
0
0
0
0
0
0
0
0
0
0
0
0
0
0
0
0
0
0
0
0
0
0
0
0
0
0
0
0
0
0
0
0
0
0
0
0
0
0
0
0
0
0
0
0
0
0
0
0
0
0
0
0
0
0
0
0
0
0
0
0
0
0
0
0
0
0
0
0
0
0
0
0
0
0
0
0
0
0
0
0
0
0
0
0
0
0
0
0
0
0
0
0
0
0
0
0
0
0
0
0
0
0
0
0
0
0
0
0
0
0
0
0
0
0
0
0
0
0
0
0
0
0
0
0
0
0
0
0
0
0
0
0
0
0
0
0
0
0
0
0
0
0
0
0
0
0
0
0
0
0
0
0
0
0
0
0
0
0
0
0
0
0
0
0
0
0
0
0
0
0
0
0
0
0
0
0
0
0
0
0
0
0
0
0
0
0
0
0
0
0
0
0
0
0
0
0
0
0
0
0
0
0
0
0
0
0
0
0
0
0
0
0
0
0
0
0
0
0
0
0
0
0
0
0
0
0
0
0
0
0
0
0
0
0
0
0
0
0
0
0
0
0
0
0
0
0
0
0
0
0
0
0
0
0
0
0
0
0
0
0
0
0
0
0
0
0
0
0
0
0
0
0
0
0
0
0
0
0
0
0
0
0
0
0
0
0
0
0
0
0
0
0
0
0
0
0
0
0
0
0
0
0
0
0
0
0
0
0
0
0
0
0
0
0
0
0
0
0
0
0
0
0
0
0
0
0
0
0
0
0
0
0
0
0
0
0
0
0
0
0
0
0
0
0
0
0
0
0
0
0
0
0
0
0
0
0
0
0
0
0
0
0
0
0
0
0
0
0
0
0
0
0
0
0
0
0
0
0
0
0
0
0
0
0
0
0
0
0
0
0
0
0
0
0
0
0
0
0
0
0
0
0
0
0
0
0
0
0
0
0
0
0
0
0
0
0
0
0
0
0
0
0
0
0
0
0
0
0
0
0
0
0
0
0
0
0
0
0
0
0
0
0
0
0
0
0
0
0
0
0
0
0
0
0
0
0
0
0
0
0
0
0
0
0
0
0
0
0
0
0
0
0
0
0
0
0
0
0
0
0
0
0
0
0
0
0
0
0
0
0
0
0
0
0
0
0
0
0
0
0
0
0
0
0
0
0
0
0
0
0
0
0
0
0
0
0
0
0
0
0
0
0
0
0
0
0
0
0
0
0
0
0
0
0
0
0
0
0
0
0
0
0
0
0
0
0
0
0
0
0
0
0
0
0
0
0
0
0
0
0
0
0
0
0
0
0
0
0
0
0
0
0
0
0
0
0
0
0
0
0
0
0
0
0
0
0
0
0
0
0
0
0
0
0
0
0
0
0
0
0
0
0
0
0
0
0
0
0
0
0
0
0
0
0
0
0
0
0
0
0
0
0
0
0
0
0
0
0
0
0
0
0
0
0
0
0
0
0
0
0
0
0
0
0
0
0
0
0
0
0
0
0
0
0
0
0
0
0
0
0
0
0
0
0
0
0
0
0
0
0
0
0
0
0
0
0
0
0
0
0
0
0
0
0
0
0
0
0
0
0
0
0
0
0
0
0
0
0
0
0
0
0
0
0
0
-1.10901255316122808312748e-57
-1.147613422592923117991103e-45
-5.572960287679282723802095e-44
-1.350454257191273054347587e-42
-2.177296511700823361238469e-41
-2.627560918859596991519893e-40
-2.531717845427475257211743e-39
-2.028779118415106098967368e-38
-1.390741451893166509279757e-37
-8.325411021302091877801309e-37
-4.421326376256627048737448e-36
-2.109028942931088744023808e-35
-9.127686756336268478212592e-35
-1.05280049604513990261947e-34
-1.21222463205742787630816e-34
-1.393336345195107622609992e-34
-1.598631631167904828090058e-34
-1.830811817149643758506027e-34
-2.092785515727011235411657e-34
-2.387667325069249675725816e-34
-2.718772608999460248124124e-34
-3.089607641138670473102461e-34
-3.503854357422449550200685e-34
-3.965348934816257729428343e-34
-4.478053405232596438300524e-34
-5.046019527091132613745247e-34
-5.673344177662891735534515e-34
-6.364115602406139710248034e-34
-7.122349968093987917366786e-34
-7.9519178195352166329458e-34
-8.856460239512830570842733e-34
-9.839294761645016310238614e-34
-1.090331138852480631429746e-33
-1.205085942320266313187842e-33
-1.328362622922272807308747e-33
-1.460250948874839303178704e-33
-1.600748502243228516683172e-33
-1.749747275768743473757173e-33
-1.90702039692106337721801e-33
-2.072209344817097444462922e-33
-2.244812076166001675971984e-33
-2.424172521509145759789141e-33
-2.609471949730955803823959e-33
-2.799722723875382207668692e-33
-2.993764981319931242242758e-33
-3.190266762997672522125165e-33
-3.387728086438104954457226e-33
-3.584489403238848370990966e-33
-3.778744801125869911126516e-33
-3.968560202942909770944843e-33
-4.151896679836435429570397e-33
-4.326638835143821042081746e-33
-4.490628032250104198522475e-33
-4.64170003892894504619173e-33
-4.777726449209460157161398e-33
-4.896659030136580160039452e-33
-4.996575934944055380555627e-33
-5.07572853734275332527976e-33
-5.132587485692843478524632e-33
-5.16588646264238231188702e-33
-5.174662076488613757311842e-33
-5.158288314592187722445553e-33
-5.11650406373392647408265e-33
-5.0494323512057599561306e-33
-4.957590183573346172719777e-33
-4.841888152910590329079485e-33
-4.703619333698419002427653e-33
-4.544437393723108368179731e-33
-4.36632427133610494669005e-33
-4.17154820815499608263125e-33
-3.9626133474039110362154e-33
-3.742202489626512320953009e-33
-3.513114916434614997401396e-33
-5.226074588245468156119112e-33
-7.326460016051505114110208e-33
-9.719666991691053322084921e-33
-1.224609503482516962543552e-32
-1.469873530751549722201206e-32
-1.685308994499782373931822e-32
-1.850292068789317514057962e-32
-1.949357538767017817441994e-32
-1.974538695279123648101697e-32
-1.926250260357222280454543e-32
-1.812641134786577703192188e-32
-1.64771039732484775942174e-32
-1.44871974815824828780204e-32
-1.233502711666594700569169e-32
-1.018180297728344294850895e-32
-8.15602047433975267186921e-33
-6.346126810671683236067492e-33
-4.800592544266896307277439e-33
-3.53337308131015150980096e-33
-2.532341215797508820583782e-33
-1.76848531156178345738237e-33
-1.204249583367792559385293e-33
-8.000908326714143178486313e-34
-5.189504698240781205036989e-34
-3.287895077317720222415349e-34
-2.035840460982998509267897e-34
-1.232592195598869064435572e-34
-7.300453933229812763995341e-35
-4.231843784382268993220281e-35
-2.401837640062639470705445e-35
-1.335266582594440737095553e-35
-7.273952080300139732501661e-36
-3.884285500538376769697447e-36
-2.033963150265047256107545e-36
-1.044750393017334016463621e-36
-5.265742083177000645097057e-37
-2.605064037144137068697033e-37
-1.265370538832449031943078e-37
-6.036442812784999442342356e-38
-2.828962773143569379669745e-38
-1.302777624853412473696909e-38
-5.896850333981873119446989e-39
-2.624112481764840398139595e-39
-1.148310251465583349963472e-39
-4.942523867315117863978665e-40
-2.092887486809665637509071e-40
-8.720514768930902963628407e-41
-3.576234177268359955405154e-41
-1.44371962586900423915214e-41
-5.73846237903819524187313e-42
-2.246177068531623302649843e-42
-8.659756111700881791124237e-43
-3.288937081909026331394893e-43
-1.230740195292411521063378e-43
-4.538460648457494622686051e-44
-1.64949293189687440809853e-44
-5.909603232963026563550098e-45
-2.087355869807017045222528e-45
-7.269883218630772825270748e-46
-2.496961167504484830163392e-46
-8.458794675043377130573202e-47
-2.826667863088143124000363e-47
-9.318936354074047901049852e-48
-3.031358491246610590014803e-48
-9.730614857342652873576105e-49
-3.082666251399625931940358e-49
-9.639306832549028321043765e-50
-2.975409011645110558832227e-50
-9.067265447418840659637923e-51
-2.72822851497032437422144e-51
-8.105964247360684113411174e-52
-2.378437563143215421771806e-52
-6.892621575626742017884354e-53
-1.972986478800003053134852e-53
-5.578932438701237954973915e-54
-1.558492482424413092217394e-54
-4.301532776259199247689331e-55
-1.17312422790037768902665e-55
-3.161574346129006257986244e-56
-8.420480729747145649051316e-57
-2.216557679374377496635139e-57
-5.767180575508177947283416e-58
-1.483280449998742394742841e-58
-3.771292551556519601571014e-59
-9.479722147047329065720216e-60
-2.355970457248206710870591e-60
-5.789519966354723492862248e-61
-1.406833272895015306972004e-61
-3.380634317980130538439433e-62
-8.034089168601535678432773e-63
-1.888359444761221735770739e-63
-4.390037378881760223071153e-64
-1.009514546153450688465083e-64
-2.296372515726089844413982e-65
-5.167510927917490153167603e-66
-1.150410953987993851183117e-66
-2.533843146811405976132044e-67
-5.5218356274603219281093e-68
-1.190653823370613183558326e-68
-2.540425397559569886430587e-69
-5.363721756882583607638471e-70
-1.120686677445242654098394e-70
-2.317282687390505736614012e-71
-4.742077863707286814549768e-72
-9.604407186515147020287095e-73
-1.925313133830467383470409e-73
-3.82012128673624730412165e-74
-7.502625519322984285528343e-75
-1.45856039624463306065537e-75
-2.806884798436647659464081e-76
-5.347207906515596367104078e-77
-1.008426903798765354272538e-77
-1.882731824710492919344021e-78
-3.479927831357444327416476e-79
-6.367955158896160008730172e-80
-1.153684792704145998008336e-80
-2.069380339370866912197029e-81
-3.675082697863322606685283e-82
-6.46210907043175775456103e-83
-1.125038928386426861089093e-83
-1.939329433527723878929767e-84
-3.3100149450187443751872e-85
-5.593775161813124159716406e-86
-9.360042493180457719193045e-87
-1.550772509392221231169803e-87
-2.543981971228790719908429e-88
-4.132113170782075779390348e-89
-6.645343539562288628899984e-90
-1.058138663950808426142594e-90
-1.668162558117602035034118e-91
-2.60371319093917566318034e-92
-4.023394447738710699448472e-93
-6.154879068951065994682568e-94
-9.320802352284097974346259e-95
-1.39723542430814954598132e-95
-2.073193102040552711409068e-96
-3.044600078055579403257041e-97
-4.424883886600434747314704e-98
-6.363687686465231616559522e-99
-9.055193733631656787147288e-100
-1.274694378072340821014613e-100
-1.774845832751767498706358e-101
-2.443854884020357339990185e-102
-3.326969900848812392930448e-103
-4.476726261444753192216908e-104
-5.952049950552855726860012e-105
-7.816167821048464341590221e-106
-1.013286671473934061103695e-106
-1.296056957282945527155834e-107
-1.634363999471701712615109e-108
-2.030030098525200151903389e-109
-2.480657471744589097199918e-110
-2.977573521302455464116109e-111
-3.503293190530678669842316e-112
-4.028490383216571090071827e-113
-4.508507160952490773118845e-114
-4.879476951916703561458581e-115
-5.054195447789919368481906e-116
-4.917938047689004057258294e-117
-4.324491923308335989738981e-118
-3.092738741913461282810702e-119
-1.004184039715531383108357e-120
2.19812671226136426937953e-121
6.808845659932870893979756e-122
1.315726712055922864222577e-122
2.160158551684097773979683e-123
3.252017098614125617221097e-124
4.629971157018991613934163e-125
6.332025978531839640280279e-126
8.393744732228305355476389e-127
1.084623823358783031339029e-127
1.371400021944499869135516e-128
1.701268997156308189334546e-129
2.074698494559032515050019e-130
2.49086408776553589616905e-131
2.947490343607022841204781e-132
3.440741212545354498097683e-133
3.965172278344579944461186e-134
4.513754946267219859982573e-135
5.077979058968477344997823e-136
5.648035989588205090547762e-137
6.213079253063247063511767e-138
6.761554456736685430517266e-139
7.28158538501270014246088e-140
7.761398597520908422713346e-141
8.189765505916940174097365e-142
8.556438804718150784717475e-143
8.852559589297067000541662e-144
9.07101259644355825351541e-145
9.206709707446283330435495e-146
9.256785979810727473413665e-147
9.220697716756174102247902e-148
9.100218042660495124934955e-149
8.899331667277597832282676e-150
8.624036515505190800826935e-151
8.282065223876236913116643e-152
7.882543779211313187288768e-153
7.43560751867537432173701e-154
6.951996165405024391545202e-155
6.442649511721320278140659e-156
5.918323880020130555337315e-157
5.38924679621019377048566e-158
4.864823691443521147135968e-159
4.353406245398891356645137e-160
3.862127555772070397420442e-161
3.396805005225589599946418e-162
2.961907795894160435658411e-163
2.560582864614843668562612e-164
2.194730433426726679126938e-165
1.865118862123583353593156e-166
1.571527747807122863305537e-167
1.312908289109088210091473e-168
1.087550677503317397708804e-169
8.93249539342500294634666e-171
7.274600593739723130702375e-172
5.874392007940735589728633e-173
4.703682451504135710412851e-174
3.734545799187574315764298e-175
2.940121660813804025543619e-176
2.295213596742918237602204e-177
1.776697092621167383403872e-178
1.36376002963205664013336e-179
1.038002138066863196461409e-180
7.834212675302548829326756e-182
5.863137019358770486724565e-183
4.351136850808980559080847e-184
3.201942862801136423802371e-185
2.336481622828259911372782e-186
1.690630289231530392525046e-187
1.213030299892138573224623e-188
8.63038851648872503733449e-190
6.088684015517404535576954e-191
4.259409065521857460459121e-192
2.954651538576565977038581e-193
2.03232012164939749283004e-194
1.386131954870290899430693e-195
9.37434826628716379681948e-197
6.286354163950907256817135e-198
4.179986008787599066638236e-199
2.755914718356779429615041e-200
1.801640756996662667585273e-201
1.167826675696772032338387e-202
7.50572115682438739189683e-204
4.783063609782494801157591e-205
3.022144474210224726890763e-206
1.893280876389731726744408e-207
1.175982474267931359871578e-208
7.242151912032805631625109e-210
4.421912931926563175380285e-211
2.676844283198448287866884e-212
1.606574157085833697315039e-213
9.559548256785540134753378e-215
5.639321574591958194289298e-216
3.298093903984412034221568e-217
1.912226815956254880336345e-218
1.099130815450906172519311e-219
6.263053396872568983781608e-221
3.537875535159722006016674e-222
1.981123010472847970548232e-223
1.099728140902852727194088e-224
6.051410037891787516447774e-226
3.300785550173066549664482e-227
1.784676295881853716077763e-228
9.564774721227593484047925e-230
5.081064397303061946818168e-231
2.675411732065280603293169e-232
1.396283580871210417136022e-233
7.222617268133928344124249e-235
3.702919053513612357323245e-236
1.881537792880705025756284e-237
9.475257804594603336346556e-239
4.728991345827740258044321e-240
2.33902688248054360934683e-241
1.146517561617733078759639e-242
5.569220146509655126922038e-244
2.680805974450671055792902e-245
1.278741096668932844567577e-246
6.044143917854690263720423e-248
2.830807666920584820597218e-249
1.313704072430334687715453e-250
6.04065917836957857971081e-252
2.752063626880121782070832e-253
1.242245586703012351361686e-254
5.555441349769456880271114e-256
2.461380708022024123635676e-257
1.080375916138768560166037e-258
4.697787548323703040814331e-260
2.023580411278995392432968e-261
8.634598603921507766362605e-263
3.649590533533709379214032e-264
1.527959590012311322052732e-265
6.336223631798196491405325e-267
2.602465067253543205402905e-268
1.058667795228811519545887e-269
4.265197892696142324992175e-271
1.701795520418791126922773e-272
6.72431406821059186049746e-274
2.631142923613869505951638e-275
1.019482630310483041723873e-276
3.911442527316188671329596e-278
1.485929749046973908950649e-279
5.589152353671984766790525e-281
2.081429847078750054167835e-282
7.674096252246645229601659e-284
2.8010668338588294560098e-285
1.012118226108586521638348e-286
3.620186858301711061357293e-288
1.281748312956544427026983e-289
4.491860211096665736430982e-291
1.558047620227470453295988e-292
5.348662053299769334476148e-294
1.8171804251636887368882e-295
6.109666741503725255205205e-297
2.032737423217649810843857e-298
6.692164690779261249644931e-300
2.179969371774264912781133e-301
7.026014084264524590540638e-303
2.240363362093976580886304e-304
7.067311586314567013836134e-306
2.205420403730564461663133e-307
0
0
0
0
0
0
-2.600565241567630327085311e-43
-1.268085550800312161996114e-41
-3.085290825590670511397255e-40
-4.993963960429819748526442e-39
-6.04985889227460315515127e-38
-5.850872988718392242367597e-37
-4.705402761621961908367411e-36
-3.236715316498410283769058e-35
-1.943994670386878509939412e-34
-1.035629575740271238033174e-33
-4.954778444934782069982974e-33
-2.150383460295589554465379e-32
-8.5365091301946316037867e-32
-3.121337248727706649635549e-31
-3.513561692218959658104077e-31
-3.947366453728127764828519e-31
-4.425917323513406972613039e-31
-4.952422950032465761552449e-31
-5.530098862348631189726105e-31
-6.162125162005314073798802e-31
-6.851597605768225491145251e-31
-7.601471909945330319432104e-31
-8.414501243520129442927647e-31
-9.293167042443768337907821e-31
-1.023960347173904608493638e-30
-1.125551608522668551859444e-30
-1.234209548316204825973326e-30
-1.349992704295446190181005e-30
-1.472889809293147124892635e-30
-1.602810420754152563734128e-30
-1.739575661632437148703461e-30
-1.882909302831897711367435e-30
-2.032429446630484619201882e-30
-2.187641096754350296428492e-30
-2.347929922408762718982291e-30
-2.512557538963793383833351e-30
-2.680658635405295893511531e-30
-2.851240276364255808254826e-30
-3.02318369288280838905368e-30
-3.19524884959207802466732e-30
-3.366082035483648290669319e-30
-3.534226670171960425417441e-30
-3.698137447209893493126427e-30
-3.856197851008732283705565e-30
-4.006740985334054133164583e-30
-4.148073541129620195093025e-30
-4.278502612341853277057939e-30
-4.396364944143730117829803e-30
-4.500058072967044978800222e-30
-4.588072697267177465052432e-30
-4.659025507739127530996887e-30
-4.711691611911118613370932e-30
-4.745035616836063673467185e-30
-4.758240390895844713404124e-30
-4.750732516775119393584351e-30
-4.722203476668364999729967e-30
-4.67262568052948004370885e-30
-4.602262559664853373453553e-30
-4.511672100136119541059953e-30
-4.401703379957427883814997e-30
-4.273485895294127689262989e-30
-4.128411705908611806069833e-30
-3.96811068906056780642157e-30
-3.794419452470665543488973e-30
-3.609344708270657647734275e-30
-3.415022138214083990611892e-30
-3.213671973359143127573565e-30
-3.007552657746351418490053e-30
-2.79891405610234293226072e-30
-2.589951693877328764490064e-30
-2.382763480842656059782433e-30
-2.179310267579402666646977e-30
-1.981381421797488327721008e-30
-1.790566396479782473324307e-30
-2.371350394373225062914138e-30
-2.980923051650315029560434e-30
-3.568022474284282309731685e-30
-4.077851682715417073588719e-30
-4.460973654533534582476213e-30
-4.68138475269340717686758e-30
-4.721936177742605519376109e-30
-4.586048041950366713066041e-30
-4.295661238341627322185682e-30
-3.886268364156462372390737e-30
-3.400410634719848972622367e-30
-2.881130413346198647123619e-30
-2.366588892610351607322085e-30
-1.886554617690871435989677e-30
-1.46092468121042478155752e-30
-1.10000265167848017711649e-30
-8.060017666107438614871559e-31
-5.751741778794944135011393e-31
-4.000430875437120724378453e-31
-2.713695443250449139738038e-31
-1.796582261126664428772181e-31
-1.161536324824237799000205e-31
-7.337883871131470798073998e-32
-4.532102515978077999145335e-32
-2.738072113134685970599157e-32
-1.618898391525461560580499e-32
-9.371861848717756561265838e-33
-5.314412824987335465894249e-33
-2.953177828479067477487783e-33
-1.608797836865075711838953e-33
-8.595181370806295170718477e-34
-4.505121073348755708556199e-34
-2.317418180922831348312996e-34
-1.170282003183222371940058e-34
-5.803632156701325932669336e-35
-2.827231258581783486294248e-35
-1.353312014165146806399127e-35
-6.366888644915918356251159e-36
-2.944839928969794433369946e-36
-1.339395410404616202141989e-36
-5.991996808309247075763918e-37
-2.637233984461412211333987e-37
-1.142180354222371307549162e-37
-4.868783026871499164863958e-38
-2.04311607253620076209686e-38
-8.441824343731172200700116e-39
-3.435032024574801726220073e-39
-1.376746574018120457808761e-39
-5.436014674927833205379193e-40
-2.114864781757608915156536e-40
-8.108291884656185375755681e-41
-3.063994158676273294196444e-41
-1.14136094440356278186173e-41
-4.191767319238777354494295e-42
-1.517997094684996327198558e-42
-5.421293503632187042614103e-43
-1.909632805563989194783799e-43
-6.635395284285956420478489e-44
-2.274610742752442008264407e-44
-7.693474534037668791762401e-45
-2.567813060791497066482646e-45
-8.458212845325429438022941e-46
-2.749892110918156879160077e-46
-8.825122814340050490224385e-47
-2.796011129290453330138889e-47
-8.746088314313970987210936e-48
-2.701396278527588236318686e-48
-8.239555273173789248635147e-49
-2.481994359878610497225402e-49
-7.384461879351038338564387e-50
-2.170183640707997042343483e-50
-6.300445728078320688067094e-51
-1.807090496369629641696582e-51
-5.121040017602901572656391e-52
-1.4339731895791604747229e-52
-3.967917353687543043854525e-53
-1.085066257353452078021211e-53
-2.93261131180447930276136e-54
-7.834100788857002367907017e-55
-2.068670225321214555067126e-55
-5.39996780222309092989793e-56
-1.39353701612553865270685e-56
-3.555512641150745165170073e-57
-8.969548791769597822448398e-58
-2.237439136293469151619099e-58
-5.519135947257126574264259e-59
-1.346345450677520554270143e-59
-3.248128301263391122484589e-60
-7.75043676998879735968239e-61
-1.829194908426096221859781e-61
-4.270300749939135934493956e-62
-9.861543306803021849141401e-63
-2.252900109520477785742805e-63
-5.091804355843699709096764e-64
-1.138559461396731653945871e-64
-2.518923025053031179456977e-65
-5.514036100421428074236903e-66
-1.194372032235037310120986e-66
-2.560024742900386502536461e-67
-5.43002522344179064110079e-68
-1.139805446282126380794382e-68
-2.367817757256666720510727e-69
-4.868233091649855001231213e-70
-9.906409788189307119128237e-71
-1.995256509609347781788577e-71
-3.977716126445724858704355e-72
-7.849389837395699364758888e-73
-1.533270936666538581155258e-73
-2.964803976079467690995779e-74
-5.675180283407904406168937e-75
-1.07542908443548872525554e-75
-2.017499648066917014366039e-76
-3.747012505953999325284634e-77
-6.889797493590432991786685e-78
-1.254256265891168969025925e-78
-2.260646485705703442428781e-79
-4.034156684099727429128001e-80
-7.127756841845845220443514e-81
-1.2469191795984202008867e-81
-2.159799020834426521117288e-82
-3.704087029153817889996522e-83
-6.289901867725961641715154e-84
-1.057553121291311455234678e-84
-1.760579278525159288557018e-85
-2.902030895279345492331799e-86
-4.736285958300115261174771e-87
-7.653461219650514696825234e-88
-1.22448841853711707626604e-88
-1.939630188506907037002499e-89
-3.041858030153419570292825e-90
-4.722809110356562715892428e-91
-7.259154964219260590902185e-92
-1.104524778143702069628962e-92
-1.663582566581375714073243e-93
-2.480072139782148314768605e-94
-3.65933385055817296950221e-95
-5.343411849054809553812049e-96
-7.720915845323154771255195e-97
-1.103823504401822578036541e-97
-1.561166780971675662593363e-98
-2.183963878061958559916781e-99
-3.021364306631026615462953e-100
-4.132586809525548413542603e-101
-5.587059104517135798622411e-102
-7.463544326684893803578439e-103
-9.847750550027844938255731e-104
-1.282780119935752627011154e-104
-1.648682974546260889742003e-105
-2.089186586517138027041755e-106
-2.607812049117754855296565e-107
-3.202777590044635217199393e-108
-3.86424689205867843030552e-109
-4.570884603158666361980386e-110
-5.285689229486177879349119e-111
-5.951120996731472217132307e-112
-6.483605617674120002026784e-113
-6.767573706710950378692006e-114
-6.649287518765548371923684e-115
-5.930807293747646352216105e-116
-4.364551961468327818523598e-117
-1.64900421976817199697194e-118
2.57381300126891690190061e-119
8.71841526881800311435658e-120
1.725281396198561210873442e-120
2.869172720726032871739555e-121
4.358553502790839374529715e-122
6.250465372208599103234756e-123
8.601925709627067005853567e-124
1.14674585502186115776815e-124
1.48962442715342927019002e-125
1.892898632099416448343904e-126
2.359463095001432985929622e-127
2.890710974277016702373077e-128
3.486230110558586266743002e-129
4.143542239504953991862967e-130
4.857906608501703676914061e-131
5.622207924775404828027844e-132
6.426945478621517490141469e-133
7.260335586360723888615775e-134
8.108533392830790793029309e-135
8.955972921478654954287473e-136
9.78581654838008347371318e-137
1.05804973837701822774976e-137
1.132233099247708828407651e-138
1.199416708028185297688717e-139
1.258004774972771965852077e-140
1.306583709051027947437106e-141
1.343978744681218443839094e-142
1.369301072592549159298058e-143
1.381982839802430035251545e-144
1.381798100789857337256744e-145
1.368868653330985674576337e-146
1.343654612491416394707644e-147
1.306930493984834826295551e-148
1.259748423864439918009698e-149
1.203390803337454207824698e-150
1.139315286491554007827147e-151
1.069095243065545172035586e-152
9.943589654269779743121277e-154
9.167307453110131400332623e-155
8.377766158667105694928109e-156
7.589570666530849097243266e-157
6.81588441703509136617772e-158
6.068140766307178874232697e-159
5.355855726271606683227741e-160
4.686539908724212406624374e-161
4.065702194603191082459904e-162
3.496933446919718975947027e-163
2.982055654850604278100279e-164
2.521320277763231804107318e-165
2.113639184241899261105984e-166
1.756832298462286201324491e-167
1.447877659047869503867083e-168
1.18315181474387814308776e-169
9.586510701329651675610678e-171
7.701868117794170803898835e-172
6.135507817905834113470821e-173
4.846485571702231619439716e-174
3.796015243192574976542774e-175
2.948192429120772218253938e-176
2.270452514377778541813801e-177
1.733800947152360183936673e-178
1.312856966278536514499853e-179
9.857522256285056070679485e-181
7.33923481579052314435629e-182
5.418344779722738425927804e-183
3.966570677509452243825757e-184
2.879360485820236236939389e-185
2.072566418094524921434282e-186
1.479283657677053155921249e-187
1.046944814191089759951787e-188
7.347234941547467070984345e-190
5.112697437887943743019153e-191
3.52776993335295813014165e-192
2.413638004754745955778015e-193
1.637431783955999312832997e-194
1.101465095186103200767715e-195
7.346689983453945527093162e-197
4.858731718714190670283151e-198
3.186111054192819932697257e-199
2.071581446294431597345222e-200
1.335495221345682293950994e-201
8.536459360723102671980807e-203
5.410083945086360614272282e-204
3.399511225429089812266506e-205
2.117924398338621524752809e-206
1.308220541555729599607203e-207
8.01166610679816359232402e-209
4.86441598989374574413229e-210
2.928188141211362543671061e-211
1.747518818634774543609978e-212
1.033935300765807800128215e-213
6.064671526526633148716853e-215
3.526608242437380491878378e-216
2.032996163138158707280793e-217
1.161819052964692895747711e-218
6.581971669465689943681891e-220
3.69642486167088502561955e-221
2.057826200799286508489855e-222
1.135608958753060047959679e-223
6.212042261321426615894234e-225
3.36835167515164451012001e-226
1.810379583169706224631224e-227
9.644563869220263021512374e-229
5.092694409425247770320851e-230
2.665359788662531476165953e-231
1.38260519496266788136528e-232
7.108293486513192203806586e-234
3.621994873066898528804565e-235
1.829093481134967822451339e-236
9.154183657477433483233971e-238
4.540344737474020663707838e-239
2.231686283124966114927217e-240
1.087031082434971444859049e-241
5.246920151826992134873243e-243
2.509629240850734160926155e-244
1.189449502110688313326296e-245
5.586017166592962393160202e-247
2.599360915832544510370739e-248
1.198469467419538130347919e-249
5.474837138444048409946627e-251
2.477917265455606800028087e-252
1.111120206042885731709627e-253
4.936066090424958190284706e-255
2.172367718966670053865305e-256
9.471193082825270594615399e-258
4.090545955872744250715233e-259
1.750044513145809089772138e-260
7.416412503732884990627326e-262
3.113157412295729390679434e-263
1.294362396732142663786494e-264
5.3301962599869677941743e-266
2.173940416515802259765956e-267
8.781193069087723298725363e-269
3.512731076431211357495043e-270
1.391571430058532477977281e-271
5.459071233203974850055225e-273
2.120644149709253200415885e-274
8.157093214106658196013723e-276
3.106734422806161770215414e-277
1.171537176315087071293517e-278
4.37394272400610760586968e-280
1.616726935678005525331353e-281
5.915997340321200649655969e-283
2.143027665797215400224588e-284
7.684516309679804311839247e-286
2.72756005834687996137188e-287
9.582544328319977580538756e-289
3.332079882212269680807253e-290
1.146718874176415824873611e-291
3.905566584634300998211317e-293
1.316360367688851103515149e-294
4.390428829754526984720249e-296
1.448964615196807364613728e-297
4.731558206047682567639137e-299
1.528701167834987401083526e-300
4.886399779988089171232511e-302
1.545179394523166583622719e-303
4.833563071397841286297059e-305