/*--------------------------------*- C++ -*----------------------------------*\
| =========                 |                                                 |
| \\      /  F ield         | OpenFOAM: The Open Source CFD Toolbox           |
|  \\    /   O peration     | Version:  v2012                                 |
|   \\  /    A nd           | Website:  www.openfoam.com                      |
|    \\/     M anipulation  |                                                 |
\*---------------------------------------------------------------------------*/
FoamFile
{
    version     2.0;
    format      ascii;
    class       volScalarField;
    location    "1";
    object      alpha.water;
}
// * * * * * * * * * * * * * * * * * * * * * * * * * * * * * * * * * * * * * //

dimensions      [0 0 0 0 0 0 0];


internalField   nonuniform List<scalar> 
96000
(
0
0
0
0
0
0
0
0
0
0
0
0
0
0
0
0
0
0
0
0
0
0
0
0
0
0
0
0
0
0
0
0
0
0
0
0
0
0
0
0
0
0
0
0
0
0
0
0
0
0
0
0
0
0
0
0
0
0
0
0
0
0
0
0
0
0
0
0
0
0
0
0
0
0
0
0
0
0
0
0
0
0
0
0
0
0
0
0
0
0
0
0
0
0
0
0
0
0
0
0
0
0
0
0
0
0
0
0
0
0
0
0
0
0
0
0
0
0
0
0
0
0
0
0
0
0
0
0
0
0
0
0
0
0
0
0
0
0
0
0
0
0
0
0
0
0
0
0
0
0
0
0
0
0
0
0
0
0
0
0
0
0
0
0
0
0
0
0
0
0
0
0
0
0
0
0
0
0
0
0
0
0
0
0
0
0
0
0
0
0
0
0
0
0
0
0
0
0
0
0
0
0
0
0
0
0
0
0
0
0
0
0
0
0
0
0
0
0
0
0
0
0
0
0
0
0
0
0
0
0
0
0
0
0
0
0
0
0
0
0
0
0
0
0
0
0
0
0
0
0
0
0
0
0
0
0
0
0
0
0
0
0
0
0
0
0
0
0
0
0
0
0
0
0
0
0
0
0
0
0
0
0
0
0
0
0
0
0
0
0
0
0
0
0
0
0
0
0
0
0
0
0
0
0
0
0
0
0
0
0
0
0
0
0
0
0
0
0
0
0
0
0
0
0
0
0
0
0
0
0
0
0
0
0
0
0
0
0
0
0
0
0
0
0
0
0
0
0
0
0
0
0
0
0
0
0
0
0
0
0
0
0
0
0
0
0
0
0
0
0
0
0
0
0
0
0
0
0
0
0
0
0
0
0
0
0
0
0
0
0
0
0
0
0
0
0
0
0
0
0
0
0
0
0
0
0
0
0
0
0
0
0
0
0
0
0
0
0
0
0
0
0
0
0
0
0
0
0
0
0
0
0
0
0
0
0
0
0
0
0
0
0
0
0
0
0
0
0
0
0
0
0
0
0
0
0
0
0
0
0
0
0
0
0
0
0
0
0
0
0
0
0
0
0
0
0
0
0
0
0
0
0
0
0
0
0
0
0
0
0
0
0
0
0
0
0
0
0
0
0
0
0
0
0
0
0
0
0
0
0
0
0
0
0
0
0
0
0
0
0
0
0
0
0
0
0
0
0
0
0
0
0
0
0
0
0
0
0
0
0
0
0
0
0
0
0
0
0
0
0
0
0
0
0
0
0
0
0
0
0
0
0
0
0
0
0
0
0
0
0
0
0
0
0
0
0
0
0
0
0
0
0
0
0
0
0
0
0
0
0
0
0
0
0
0
0
0
0
0
0
0
0
0
0
0
0
0
0
0
0
0
0
0
0
0
0
0
0
0
0
0
0
0
0
0
0
0
0
0
0
0
0
0
0
0
0
0
0
0
0
0
0
0
0
0
0
0
0
0
0
0
0
0
0
0
0
0
0
0
0
0
0
0
0
0
0
0
0
0
0
0
0
0
0
0
0
0
0
0
0
0
0
0
0
0
0
0
0
0
0
0
0
0
0
0
0
0
0
0
0
0
0
0
0
0
0
0
0
0
0
0
0
0
0
0
0
0
0
0
0
0
0
0
0
0
0
0
0
0
0
0
0
0
0
0
0
0
0
0
0
0
0
0
0
0
0
0
0
0
0
0
0
0
0
0
0
0
0
0
0
0
0
0
0
0
0
0
0
0
0
0
0
0
0
0
0
0
0
0
0
0
0
0
0
0
0
0
0
0
0
0
0
0
0
0
0
0
0
0
0
0
0
0
0
0
0
0
0
0
0
0
0
0
0
0
0
0
0
0
0
0
0
0
0
0
0
0
0
0
0
0
0
0
0
0
0
0
0
0
0
0
0
0
0
0
0
0
0
0
0
0
0
0
0
0
0
0
0
0
0
0
0
0
0
0
0
0
0
0
0
0
0
0
0
0
0
0
0
0
0
0
0
0
0
0
0
0
0
0
0
0
0
0
0
0
0
0
0
0
0
0
0
0
0
0
0
0
0
0
0
0
0
0
0
0
0
0
0
0
0
0
0
0
0
0
0
0
0
0
0
0
0
0
0
0
0
0
0
0
0
0
0
0
0
0
0
0
0
0
0
0
0
0
0
0
0
0
0
0
0
0
0
0
0
0
0
0
0
0
0
0
0
0
0
0
0
0
0
0
0
0
0
0
0
0
0
0
0
0
0
0
0
0
0
0
0
0
0
0
0
0
0
0
0
0
0
0
0
0
0
0
0
0
0
0
0
0
0
0
0
0
0
0
0
0
0
0
0
0
0
0
0
0
0
0
0
0
0
0
0
0
0
0
0
0
0
0
0
0
0
0
0
0
0
0
0
0
0
0
0
0
0
0
0
0
0
0
0
0
0
0
0
0
0
0
0
0
0
0
0
0
0
0
0
0
0
0
0
0
0
0
0
0
0
0
0
0
0
0
0
0
0
0
0
0
0
0
0
0
0
0
0
0
0
0
0
0
0
0
0
0
0
0
0
0
0
0
0
0
0
0
0
0
0
0
0
0
0
0
0
0
0
0
0
0
0
0
0
0
0
0
0
0
0
0
0
0
0
0
0
0
0
0
0
0
0
0
0
0
0
0
0
0
0
0
0
0
0
0
0
0
0
0
0
0
0
0
0
0
0
0
0
0
0
0
0
0
0
0
0
0
0
0
0
0
0
0
0
0
0
0
0
0
0
0
0
0
0
0
0
0
0
0
0
0
0
0
0
0
0
0
0
0
0
0
0
0
0
0
0
0
0
0
0
0
0
0
0
0
0
0
0
0
0
0
0
0
0
0
0
0
0
0
0
0
0
0
0
0
0
0
0
0
0
0
0
0
0
0
0
0
0
0
0
0
0
0
0
0
0
0
0
0
0
0
0
0
0
0
0
0
0
0
0
0
0
0
0
0
0
0
0
0
0
0
0
0
0
0
0
0
0
0
0
0
0
0
0
0
0
0
0
0
0
0
0
0
0
0
0
0
0
0
0
0
0
0
0
0
0
0
0
0
0
0
0
0
0
0
0
0
0
0
0
0
0
0
0
0
0
0
0
0
0
0
0
0
0
0
0
0
0
0
0
0
0
0
0
0
0
0
0
0
0
0
0
0
0
0
0
0
0
0
0
0
0
0
0
0
0
0
0
0
0
0
0
0
0
0
0
0
0
0
0
0
0
0
0
0
0
0
0
0
0
0
0
0
0
0
0
0
0
0
0
0
0
0
0
0
0
0
0
0
0
0
0
0
0
0
0
0
0
0
0
0
0
0
0
0
0
0
0
0
0
0
0
0
0
0
0
0
0
0
0
0
0
0
0
0
0
0
0
0
0
0
0
0
0
0
0
0
0
0
0
0
0
0
0
0
0
0
0
0
0
0
0
0
0
0
0
0
0
0
0
0
0
0
0
0
0
0
0
0
0
0
0
0
0
0
0
0
0
0
0
0
0
0
0
0
0
0
0
0
0
0
0
0
0
0
0
0
0
0
0
0
0
0
0
0
0
0
0
0
0
0
0
0
0
0
0
0
0
0
0
0
0
0
0
0
0
0
0
0
0
0
0
0
0
0
0
0
0
0
0
0
0
0
0
0
0
0
0
0
0
0
0
0
0
0
0
0
0
0
0
0
0
0
0
0
0
0
0
0
0
0
0
0
0
0
0
0
0
0
0
0
0
0
0
0
0
0
0
0
0
0
0
0
0
0
0
0
0
0
0
0
0
0
0
0
0
0
0
0
0
0
0
0
0
0
0
0
0
0
0
0
0
0
0
0
0
0
0
0
0
0
0
0
0
0
0
0
0
0
0
0
0
0
0
0
0
0
0
0
0
0
0
0
0
0
0
0
0
0
0
0
0
0
0
0
0
0
0
0
0
0
0
0
0
0
0
0
0
0
0
0
0
0
0
0
0
0
0
0
0
0
0
0
0
0
0
0
0
0
0
0
0
0
0
0
0
0
0
0
0
0
0
0
0
0
0
0
0
0
0
0
0
0
0
0
0
0
0
0
0
0
0
0
0
0
0
0
0
0
0
0
0
0
0
0
0
0
0
0
0
0
0
0
0
0
0
0
0
0
0
0
0
0
0
0
0
0
0
0
0
0
0
0
0
0
0
0
0
0
0
0
0
0
0
0
0
0
0
0
0
0
0
0
0
0
0
0
0
0
0
0
0
0
0
0
0
0
0
0
0
0
0
0
0
0
0
0
0
0
0
0
0
0
0
0
0
0
0
0
0
0
0
0
0
0
0
0
0
0
0
0
0
0
0
0
0
0
0
0
0
0
0
0
0
0
0
0
0
0
0
0
0
0
0
0
0
0
0
0
0
0
0
0
0
0
0
0
0
0
0
0
0
0
0
0
0
0
0
0
0
0
0
0
0
0
0
0
0
0
0
0
0
0
0
0
0
0
0
0
0
0
0
0
0
0
0
0
0
0
0
0
0
0
0
0
0
0
0
0
0
0
0
0
0
0
0
0
0
0
0
0
0
0
-2.254370897036377018280842e-41
-5.773994272112005412462481e-29
-1.220202697196024534906373e-27
-1.283283896200631809376356e-26
-8.95604927489857278615971e-26
-4.666477251998291684200593e-25
-1.936373057902649872733216e-24
-6.665943017949664131332113e-24
-1.958194746559054837833859e-23
-5.011173655128575290021779e-23
-1.134913176464060212579016e-22
-2.303187945589468812854875e-22
-4.230689084989362553916844e-22
-4.11002393286642304135237e-22
-3.964095129481010845073032e-22
-3.79493730172567788131845e-22
-3.605100778837307214758684e-22
-3.397591327543055649660116e-22
-3.175790119042652499620542e-22
-2.943356524197078391012021e-22
-2.704117510499770108145821e-22
-2.461948445793726558268618e-22
-2.22065090052658835627258e-22
-1.98383349350644091478722e-22
-1.754801877191419832600695e-22
-1.536463570116175578048491e-22
-1.331252517968518273498558e-22
-1.141077046569275641039729e-22
-9.67293348084799405375128e-23
-8.10704941350998003199633e-23
-6.715868180214870955994079e-23
-5.497313864473806487155984e-23
-4.445120023162805315507198e-23
-3.549589477406025561582971e-23
-2.798422632090421520936277e-23
-2.17755870735885452831148e-23
-1.671979176692175597704495e-23
-1.266431360128842230752305e-23
-9.460413294527446999147206e-24
-6.967976737911661897693214e-24
-5.058998865874753726728083e-24
-3.61975988721321704153045e-24
-2.551826310221362231386759e-24
-1.772068384957210989903257e-24
-1.21191671615842203699584e-24
-8.160862604913364015152562e-25
-5.409805449789245452511348e-25
-3.529589089605819423834985e-25
-2.266113337414573820459338e-25
-1.431448283622000894483229e-25
-8.894702932856156871944047e-26
-5.435980354744644844259655e-26
-3.266988634060802842398055e-26
-1.930532824951227417166715e-26
-1.121519861132260249772094e-26
-6.404441420668295605427576e-27
-3.594580938599819079007969e-27
-1.982714126257290911250477e-27
-1.074664031640514795833661e-27
-5.723291205095267921854878e-28
-2.994628298036007672103997e-28
-1.539327296329180152546135e-28
-7.772852900188328692073649e-29
-3.855361654568527230033262e-29
-1.878286730358136969573052e-29
-8.987741904452857082742361e-30
-4.223901925628483481885673e-30
-1.94956056433139774584318e-30
-8.837039188212517961305681e-31
-3.933811573363857977471749e-31
-1.719683436046218299669114e-31
-7.382521974576890559384079e-32
-3.112266560663890869694984e-32
-9.236800274543651321472251e-33
-2.642638715168177835843788e-33
-7.296290761853505946391279e-34
-1.946019651918742286908823e-34
-5.018414671992857603813533e-35
-1.252328851380207302260189e-35
-3.026419395207730855105796e-36
-7.087545474691089789636101e-37
-1.609491665969836400839447e-37
-3.546112909426734606514214e-38
-7.584173150080714081219827e-39
-1.575265336252449580623829e-39
-3.178810059841442531275402e-40
-6.234394420949727621907593e-41
-1.188704515242101620975422e-41
-2.20400001272598548884042e-42
-3.974579494742840354019971e-43
-6.972209710937286071141152e-44
-1.189811628329170579109145e-44
-1.975197677966916694103425e-45
-3.189520493793972437972577e-46
-5.008813632719305800830048e-47
-7.647067742229349314665906e-48
-1.134463192589914120752996e-48
-1.634231185449702886453615e-49
-2.283663053313178361212975e-50
-3.091299947586957858526143e-51
-4.04563775239012070407976e-52
-5.104352117302195049076781e-53
-6.182691688182024625575748e-54
-7.142718116334364878348408e-55
-7.785682370705482886961355e-56
-7.850207797120189949133609e-57
-7.018918094871987258951006e-58
-4.935553711514694387063418e-59
-1.233400468828240842118611e-60
4.425920831580963247007991e-61
1.230636099825634571965262e-61
2.254917389045311931778986e-62
3.512918890283743966535304e-63
4.982300368159824920516404e-64
6.619589394168967039899415e-65
8.361230954563807226951399e-66
1.012717341579825739743795e-66
1.182678897341854564121455e-67
1.336654316070314808486139e-68
1.465851413690540643238783e-69
1.562868284025808948443984e-70
1.622390995309404046765735e-71
1.641669099630534972896688e-72
1.62071063822875373785015e-73
1.562179863224328528747947e-74
1.471023742720959693786628e-75
1.353889832290842510264234e-76
1.218422290011302443937241e-77
1.072531480298798350200089e-78
9.237257666142321075262907e-80
7.785746419582006322073013e-81
6.423451689509994415931888e-82
5.188244162509348495796476e-83
4.10314321129774646637437e-84
3.177659052427421928405818e-85
2.410088651671096227945144e-86
1.790302187455567529534221e-87
1.302603979958906697892998e-88
9.283455494554366314947514e-90
6.480828340104647932748956e-91
4.431816882812464515986423e-92
2.968692467433953098881644e-93
1.947949152737982363469102e-94
1.252020441739877634752129e-95
7.882332916009090618954523e-97
4.860621493886822114084441e-98
2.935639909769978329680557e-99
1.736458026818273672387225e-100
1.005887295993787590587457e-101
5.705942703254670262008878e-103
3.169309610699447798192968e-104
1.723550054606920847167034e-105
9.176236714951359447311672e-107
4.782368449579396328886995e-108
2.439563725436474781088295e-109
1.217928401925841434159942e-110
5.950018173302566905000924e-112
2.844100700090505037017113e-113
1.329969454137431210064218e-114
6.083379196971142588092098e-116
2.72137070278569754976001e-117
1.190418534218611168338566e-118
5.091043228828753270269819e-120
2.128292438439680382374905e-121
8.695443092590039976599902e-123
3.47138350957671433884948e-124
1.353862161674266929458311e-125
5.157195442743661562484405e-127
1.918323997153198171462816e-128
6.966216387416139662963349e-130
2.469057809403711435501864e-131
8.539109274332011329881946e-133
2.88086853715425874375414e-134
9.478529864188651508075314e-136
3.040441271182989608021685e-137
9.505517865160165991094349e-139
2.895460200967983311020144e-140
8.590422949321897028355398e-142
2.481487392313822111103375e-143
6.976670206902289174992053e-145
1.908328112209842239140257e-146
5.076313241371995326406446e-148
1.31264466870047576219936e-149
3.298016111174234718430118e-151
8.047454471407150229606479e-153
1.906105768293875450520496e-154
4.380152021641225975642435e-156
9.759863124060703335037978e-158
2.107443623346341293555546e-159
4.407140849990070419513211e-161
8.919945882824228991281642e-163
1.746106575621916838188587e-164
3.303416692174290730402219e-166
6.035333489768237433743752e-168
1.063957663381591282687351e-169
1.808211083136177020304371e-171
2.959829143478616465537399e-173
4.661652733073425950196025e-175
7.056691736374764117220938e-177
1.025530212302844588526752e-178
1.42903292054527377750381e-180
1.906781085376752460799557e-182
2.432739996511969329237262e-184
2.963095054557100253920788e-186
3.439615543341688437068747e-188
3.798225907663274507743768e-190
3.981747873247790090090632e-192
3.953816166973509219516002e-194
3.709670063963555134070556e-196
3.279735260285417833683713e-198
2.723940695110887676097935e-200
2.117968606639198422400005e-202
1.535739260372782153597384e-204
1.033879172917036498853906e-206
6.429357203939254627438768e-209
3.671519437077797795568333e-211
1.912011463320071808137344e-213
9.005536884826437560715385e-216
3.797960538091832297695736e-218
1.416543502729031828811707e-220
4.599603591039323377599885e-223
1.273734048307968427257777e-225
2.924705129506933594753212e-228
5.345804432284661291493453e-231
7.292128229854459683276909e-234
6.598792291845025654495996e-237
2.971090631177468562289094e-240
0
0
0
0
0
0
0
0
0
0
0
0
0
0
0
0
0
0
0
0
0
0
0
0
0
0
0
0
0
0
0
0
0
0
0
0
0
0
0
0
0
0
0
0
0
0
0
0
0
0
0
0
0
0
0
0
0
0
0
0
0
0
0
0
0
0
0
0
0
0
0
0
0
0
0
0
0
0
0
0
0
0
0
0
0
0
0
0
0
0
0
0
0
0
0
0
0
0
0
0
0
0
0
0
0
0
0
0
0
0
0
0
0
0
0
0
0
0
0
0
0
0
0
0
0
0
0
0
0
0
0
0
0
0
0
0
0
0
0
0
0
0
0
0
0
0
0
0
0
0
0
0
0
0
0
0
0
0
0
0
0
0
0
0
0
0
0
0
0
0
0
0
-1.308423944310827203425959e-26
-2.791306449370897047045213e-25
-2.961374862406453232067684e-24
-2.08310817318686199495067e-23
-1.092905534562675446688388e-22
-4.561443913103945361340557e-22
-1.57749635284838330026403e-21
-4.649270924542283999891684e-21
-1.192003894643793762808109e-20
-2.700591134247215995857854e-20
-5.473911384800156625652093e-20
-1.002618352345063256645974e-19
-1.67322838226771822072925e-19
-2.561910307032800836438965e-19
-2.362060334433971585699488e-19
-2.160270213615133993301265e-19
-1.959314979239010695661061e-19
-1.761837962830063669769591e-19
-1.570280116161816447387836e-19
-1.38681769574865818093381e-19
-1.213311117728681335006113e-19
-1.051267226367424549586506e-19
-9.018164913444270946891548e-20
-7.657058062047109372950846e-20
-6.433066631554123331148575e-20
-5.346375960814387636972275e-20
-4.393989842233558154523209e-20
-3.570176579349359651275829e-20
-2.866982973846640625773768e-20
-2.274783986215428709648953e-20
-1.782836102596867472901636e-20
-1.379805054179481008795356e-20
-1.054243123620264587017492e-20
-7.949973037293953452936933e-21
-5.91536401131795218736166e-21
-4.341921210293987317911206e-21
-3.143155939934674646792546e-21
-2.243561943240594040383228e-21
-1.578735016260818616469053e-21
-1.09495713577178854405894e-21
-7.483875571809513779349537e-22
-5.039993823467160423914693e-22
-3.343857559702341075550581e-22
-2.185386390918460273882613e-22
-1.406785668954273368402981e-22
-8.918904812804275335031419e-23
-5.568671761781307187023731e-23
-3.423958137248626789315704e-23
-2.073143730916219437334255e-23
-1.236085378084217508930734e-23
-7.257471494540288206379834e-24
-4.196088181235867355570856e-24
-2.389101938163969557593542e-24
-1.339573831288635036460569e-24
-7.396957068503618030643793e-25
-4.022599637566477903092987e-25
-2.154465711654458577422778e-25
-1.136478004639476442256778e-25
-5.904423309511168038168195e-26
-3.021280500514513373767681e-26
-1.522645589100681612750199e-26
-7.557747310965577374555783e-27
-3.694513672314382431192418e-27
-1.778578839886822194097978e-27
-8.431667846184853841182016e-28
-3.935920296529087297068428e-28
-1.808981903569113741835189e-28
-8.18531356262283156027413e-29
-3.645891124013868179889626e-29
-1.598417589478393431271607e-29
-6.896733681664545098736389e-30
-2.928263137840856080012849e-30
-1.22330849710876868517893e-30
-5.027668088553816021307679e-31
-1.430729843846377107759703e-31
-3.938918998253640826342732e-32
-1.04980764661804904032519e-32
-2.710312574389685859715743e-33
-6.781887544025638248910627e-34
-1.645622959890581872683336e-34
-3.874084685154667361699381e-35
-8.852410802886850087778531e-36
-1.964205683122639868472283e-36
-4.23359570555211508659182e-37
-8.867017909738369343047893e-38
-1.805197539807951390934812e-38
-3.573286046665640817763735e-39
-6.87870371157568562724718e-40
-1.288020282612399617780521e-40
-2.346267412451302244950839e-41
-4.158244868787300401770703e-42
-7.170243671293837123112258e-43
-1.202909706208087960195848e-43
-1.963162356379759243778037e-44
-3.116087401032360315065011e-45
-4.808907207529902470381803e-46
-7.211940387378960732900862e-47
-1.050326142448880435894228e-47
-1.484024949086153287173672e-48
-2.031501597642436314559399e-49
-2.689237251142862413017731e-50
-3.433196824527118488134722e-51
-4.210044257007917611307687e-52
-4.928449794731104663534868e-53
-5.452086129697715514954637e-54
-5.596295139976646240910307e-55
-5.13052766871277459936422e-56
-3.788383046626480967481697e-57
-1.28632125152968506729755e-58
2.64910278651415664690599e-59
8.247200731690124387174748e-60
1.565569355534380909846516e-60
2.490465530019969115352204e-61
3.587752133058462773391749e-62
4.829477684198312158467219e-63
6.171484594969122897564702e-64
7.555460883062917304230901e-65
8.912916133222839611962307e-66
1.017073665539751663672113e-66
1.125770025271485130738629e-67
1.211114361478294923150644e-68
1.268291562070483148519391e-69
1.294383376619406100770622e-70
1.288607565618032238150572e-71
1.252324376812459449887217e-72
1.188818251847781502144143e-73
1.102894002850287461696586e-74
1.000349918831963044697321e-75
8.874019078912719317541875e-77
7.701318801287370463911134e-78
6.540216102123973468084166e-79
5.436136563576474999215619e-80
4.423178958242113066532414e-81
3.52360178807052231804428e-82
2.748519408759001937160836e-83
2.099483905156602918666691e-84
1.570586130740813487267989e-85
1.150727940413205232557898e-86
8.257806807536188728621717e-88
5.80431881112744517650207e-89
3.9961332556746576918931e-90
2.694841960477643452441166e-91
1.780036476899488053361534e-92
1.151648242399167333126517e-93
7.297850166056962161713259e-95
4.529381652225544097869339e-96
2.753167424497229085281981e-97
1.638902738944969403469585e-98
9.553755217900605858971166e-100
5.453375780068148782187891e-101
3.047850946761897033086225e-102
1.667716592982149864180629e-103
8.933279745031292148388105e-105
4.683995080963575552759961e-106
2.40376566469887456074369e-107
1.20722480898369907172616e-108
5.932685894511212744381008e-110
2.852497620784864283403934e-111
1.341683800075444493279498e-112
6.172524804850473935485556e-114
2.777133023652322509107667e-115
1.221747795204484800708156e-116
5.254649553757068706327597e-118
2.209051466882425439967978e-119
9.075834362534421150283258e-121
3.643349014057068058943493e-122
1.428759912113902270007798e-123
5.472283240534377850538739e-125
2.04659027529202554260387e-126
7.472121349131307997799479e-128
2.6625667297880242782052e-129
9.257391039713442038305406e-131
3.139720635117137021444117e-132
1.038448662714123793990183e-133
3.348438420181402485619898e-135
1.052273186213503594910845e-136
3.221832250130689224143998e-138
9.607673858249974822380258e-140
2.789459949148363016877078e-141
7.882187538035141043359367e-143
2.166848139469799195832348e-144
5.792782517671745699155885e-146
1.505345106201051545072135e-147
3.800831600356130472432333e-149
9.319838465405110929228009e-151
2.218237589103036096221409e-152
5.122109088061794802190367e-154
1.146804704823099953920647e-155
2.48814382756937621179159e-157
5.22802975116785853801808e-159
1.063146019617705759210278e-160
2.090928304003422211384916e-162
3.974273087956543218903504e-164
7.294742521235037382231333e-166
1.29192088339973866589665e-167
2.205729414337706797402485e-169
3.627021035334310551840338e-171
5.738423388256103058204118e-173
8.725937338641090707643734e-175
1.273816390836031857156129e-176
1.782942389594641768480808e-178
2.38958235858889839197039e-180
3.062192267374804511308309e-182
3.7461705561345358106536e-184
4.367639506537158404588159e-186
4.843980857061446227607837e-188
5.099998553790446400356978e-190
5.086012998247682285172513e-192
4.792378382883213088709213e-194
4.255000821649907743727427e-196
3.548900865852379013770265e-198
2.771031789949705673287402e-200
2.017696057645049255967785e-202
1.364001669901132674043325e-204
8.517461941298574981166657e-207
4.884012524680002778089878e-209
2.553880441169878204110487e-211
1.207785291658057464400167e-213
5.114364008757005870023971e-216
1.915240182795777108133658e-218
6.243915707892376802194745e-221
1.736000780502460840125091e-223
4.00201839800435318067555e-226
7.343908778275120711823632e-229
1.005720178399536015258162e-231
9.136660770363094333704817e-235
4.129815977336052672954344e-238
0
0
0
0
0
0
0
0
0
0
0
0
0
0
0
0
0
0
0
0
0
0
0
0
0
0
0
0
0
0
0
0
0
0
0
0
0
0
0
0
0
0
0
0
0
0
0
0
0
0
0
0
0
0
0
0
0
0
0
0
0
0
0
0
0
0
0
0
0
0
0
0
0
0
0
0
0
0
0
0
0
0
0
0
0
0
0
0
0
0
0
0
0
0
0
0
0
0
0
0
0
0
0
0
0
0
0
0
0
0
0
0
0
0
0
0
0
0
0
0
0
0
0
0
0
0
0
0
0
0
0
0
0
0
0
0
0
0
0
0
0
0
0
0
0
0
0
0
0
0
0
0
0
0
0
0
0
0
0
0
0
0
0
0
0
0
0
0
0
0
0
0
-1.726199406716506606304977e-28
-1.439528444036178157076466e-25
-3.016814258686844022503765e-24
-3.170150672165877414371136e-23
-2.212794804588143931921693e-22
-1.15262055671269102303325e-21
-4.776586140697451771525646e-21
-1.639997575329257394703238e-20
-4.797522588009924339621254e-20
-1.220483798633504054231591e-19
-2.742692525751875502774616e-19
-5.511962042951272916610705e-19
-1.000580372338602519152803e-18
-1.65422828357130250391579e-18
-2.508122187186601910302847e-18
-2.358255841910633997229506e-18
-2.197438675296817377087227e-18
-2.02873313384739672546341e-18
-1.855283856737336595220199e-18
-1.680214018714968111121619e-18
-1.506523700482527669442806e-18
-1.336995414327502403599874e-18
-1.17411156580177598459491e-18
-1.019987935576648277856579e-18
-8.763262599403524906428033e-19
-7.443877462219150465570265e-19
-6.249879797772239895525021e-19
-5.185122787549252076275566e-19
-4.249492540740642295143913e-19
-3.439392494207975207556432e-19
-2.748335627987438574467886e-19
-2.167599477271231294065406e-19
-1.686898788918634266799019e-19
-1.295034218965817587659328e-19
-9.804820900423515112829523e-20
-7.318990196991192636410168e-20
-5.385251204555013641561486e-20
-3.90479367828251063994602e-20
-2.78949662421618664617512e-20
-1.962873374792934850597065e-20
-1.360209441759797135997808e-20
-9.28069572445184515865335e-21
-6.23357381156500767980375e-21
-4.121003869482598168228544e-21
-2.681101800972710208037362e-21
-1.716370371805231315029793e-21
-1.081054821526195858600538e-21
-6.69859875919790927792776e-22
-4.083095825722385402967098e-22
-2.44818302346666253076274e-22
-1.443895763694440910235019e-22
-8.376526033545711814832792e-23
-4.78008884993136588019903e-23
-2.683295890623108590563776e-23
-1.481789763311401544093649e-23
-8.050489063504308864855019e-24
-4.303423773800863140007896e-24
-2.263631472365039362612179e-24
-1.171775215601900881102728e-24
-5.97006642627973120155061e-25
-2.994056646771649260837141e-25
-1.478207210531071764685666e-25
-7.185394211932052027299794e-26
-3.439116329236674492283199e-26
-1.620910943188115141082915e-26
-7.523419892330842607282055e-27
-3.439022036245928651559522e-27
-1.548206550280186999181737e-27
-6.864337625332916626272644e-28
-2.99734225389019221405944e-28
-1.288917286607171325979508e-28
-5.45807098593702883070433e-29
-2.275858149424038060751038e-29
-9.343346410910651014783462e-30
-3.776280227025729644750519e-30
-1.040789294933377627870142e-30
-2.780564564194857423518688e-31
-7.204334617612867614814772e-32
-1.811099903773713362377072e-32
-4.419336984274333382343075e-33
-1.047130858174597681472797e-33
-2.410034054509117664705479e-34
-5.389649604966016687137934e-35
-1.17148808454241785310198e-35
-2.475530756181072383218418e-36
-5.086897461606305963137578e-37
-1.016670649436775086492422e-37
-1.976628218558210256477313e-38
-3.7389249518745454501837e-39
-6.881580590842986099975213e-40
-1.23245907933348572082797e-40
-2.147831102241721151392953e-41
-3.642038974527540549318495e-42
-6.008235414257361234357901e-43
-9.640693806843894757245421e-44
-1.504110208744312535917429e-44
-2.280593624573015852235677e-45
-3.358270899272632361333794e-46
-4.798135445939227443711292e-47
-6.642789395724502943038846e-48
-8.895214495621123860395379e-49
-1.149106254375291250267009e-49
-1.426602581271509103615759e-50
-1.692170376975189281143946e-51
-1.899539322024562882885035e-52
-1.984097639661246318331306e-53
-1.862903058952600096336638e-54
-1.437388340520074849111803e-55
-5.993169863610400460577043e-57
7.598616570927413576457759e-58
2.736675121555106534801384e-58
5.401374717001306309485293e-59
8.783446342474818390199318e-60
1.285900264461905074911784e-60
1.75423048592049751503581e-61
2.268339888974128082455914e-62
2.807317674087379149366886e-63
3.345616487082392365027925e-64
3.855015246430732616087431e-65
4.307061882276621782092689e-66
4.675702638450472612770338e-67
4.939760227523852743752141e-68
5.084934134866057525797879e-69
5.1050621860673698921581e-70
5.002491445358464264870041e-71
4.787538331057289957644067e-72
4.477148179574056451406717e-73
4.092970301100595575721869e-74
3.659128877193833273131933e-75
3.199985106079673261376947e-76
2.738154097401830703411275e-77
2.292971991211965924055111e-78
1.879520801652358916910359e-79
1.508228117250645166145505e-80
1.184981266451671044096686e-81
9.116411909259010018989805e-83
6.868143253811132780755374e-84
5.067398360281626501065829e-85
3.66168969515676289260213e-86
2.591451475762510358492507e-87
1.796297349839266926063579e-88
1.219523749501890271638715e-89
8.109191545518548511783933e-91
5.281215708136719064773565e-92
3.368594731699059082811988e-93
2.104299203792363197051069e-94
1.287334835630592926596297e-95
7.712204437942280690777485e-97
4.524208078213407231887942e-98
2.598688061385141344049796e-99
1.461437846328137843267946e-100
8.046089612357213700890682e-102
4.336387320683204917071783e-103
2.287531185361353588913331e-104
1.181015311190052702150782e-105
5.966835869742674970842738e-107
2.949714193693780011566149e-108
1.426615628056922422618701e-109
6.749409404613991567126904e-111
3.123154649377576364706995e-112
1.413265770042066790248326e-113
6.252979531058898520210255e-115
2.70464059317417240884142e-116
1.143442604668110719858179e-117
4.724115217010966232039453e-119
1.906966261992382003177317e-120
7.519569885276419462201222e-122
2.895858115515325637704486e-123
1.088925821962152425796479e-124
3.997182180584269987894579e-126
1.431981345687226749662291e-127
5.005376295520765750167111e-129
1.706613013958200139346417e-130
5.674268464582884595291387e-132
1.839217384549496598970673e-133
5.809924071224051074017955e-135
1.788057974538733419480623e-136
5.359439289916187765668427e-138
1.563974166981782991082574e-139
4.441714608833999765829842e-141
1.227193627162287561164436e-142
3.297152524168119882693898e-144
8.610764950717417464153912e-146
2.184866742163319508747591e-147
5.383718802036508751653285e-149
1.287647109876826295645667e-150
2.987719032332362953611602e-152
6.721558864551645689953227e-154
1.465322654863616123447964e-155
3.093576496264350669751805e-157
6.320751035291513866651473e-159
1.248981318543171384349394e-160
2.385084437684875885478808e-162
4.39818636791332052176629e-164
7.825384366159612990216958e-166
1.342198401759409832481282e-167
2.217165093829595250450419e-169
3.523813388500268885440572e-171
5.382620507463293700310406e-173
7.892943375508482952547131e-175
1.109709208788375170694259e-176
1.493904951012765035266098e-178
1.922879078488799788805367e-180
2.362736024579360501432015e-182
2.766764992179448495085457e-184
3.081878627759482271164994e-186
3.258822406012002761513381e-188
3.263890926767621981612447e-190
3.088637247377753434979228e-192
2.753995869487898241684939e-194
2.306723984808191874549406e-196
1.808721855827335812553663e-198
1.322528433694229591709776e-200
8.977878778262404736933838e-203
5.629492635278473477272253e-205
3.241356373441447023464484e-207
1.701893425541693636962208e-209
8.08154186496021386205264e-212
3.436052612644787109982173e-214
1.291951349764806918171449e-216
4.228884604423013633501375e-219
1.180472365900619255442725e-221
2.732205663666721405374075e-224
5.033630604432603355911697e-227
6.920578948000649235949657e-230
6.311832474323130135860037e-233
2.864131368455045745777797e-236
0
0
0
0
0
0
0
0
0
0
0
0
0
0
0
0
0
0
0
0
0
0
0
0
0
0
0
0
0
0
0
0
0
0
0
0
0
0
0
0
0
0
0
0
0
0
0
0
0
0
0
0
0
0
0
0
0
0
0
0
0
0
0
0
0
0
0
0
0
0
0
0
0
0
0
0
0
0
0
0
0
0
0
0
0
0
0
0
0
0
0
0
0
0
0
0
0
0
0
0
0
0
0
0
0
0
0
0
0
0
0
0
0
0
0
0
0
0
0
0
0
0
0
0
0
0
0
0
0
0
0
0
0
0
0
0
0
0
0
0
0
0
0
0
0
0
0
0
0
0
0
0
0
0
0
0
0
0
0
0
0
0
0
0
0
0
0
0
0
0
0
0
0
-1.890518984904667169907233e-27
-7.883618958806306303119425e-25
-1.622676245072705977847303e-23
-1.688590527336101672504185e-22
-1.169454801080246104799012e-21
-6.047710744159158972707749e-21
-2.488569162393664574916119e-20
-8.483499518628693469592876e-20
-2.463582804081940233934973e-19
-6.219881313320169689622901e-19
-1.386696427705799412533974e-18
-2.764003240647849472699333e-18
-4.97684884741153136383023e-18
-8.170777381090922692775769e-18
-1.234008571577742661122087e-17
-1.186428256643733637056555e-17
-1.12974966571680810963593e-17
-1.065347869891105391259993e-17
-9.947708403530943627959004e-18
-9.196771944580390605768456e-18
-8.417689185832727912768018e-18
-7.62723011582656983070672e-18
-6.841262429081573101169463e-18
-6.074171499517542658502886e-18
-5.338389739529977712887472e-18
-4.644064419273727519201287e-18
-3.99888168639431277888844e-18
-3.408050530656892656574813e-18
-2.874435156764590878047772e-18
-2.398809659882810636923878e-18
-1.980197431121769984109596e-18
-1.61625162833278781968098e-18
-1.303633796857330730829833e-18
-1.038355336256436722774525e-18
-8.160592882406363457830584e-19
-6.322347739092132576976825e-19
-4.823697203859390441599188e-19
-3.620562955550315705877859e-19
-2.670662910259249701223784e-19
-1.934110570998721098160484e-19
-1.373945536674805182506411e-19
-9.566134996337054426117804e-20
-6.523633886954209246184648e-20
-4.355080557266887944852878e-20
-2.845031032046823828776303e-20
-1.818264172478394415616715e-20
-1.136749871485688941083068e-20
-6.952353629488648621317945e-21
-4.160433635026854517689072e-21
-2.436813985152391425324973e-21
-1.397567217470346242261862e-21
-7.852830728996215967889012e-22
-4.325740590645097569088118e-22
-2.337685531672594866114451e-22
-1.240331597736174328221801e-22
-6.466418772969812461896602e-23
-3.315233278238201031894391e-23
-1.672738020391552460652153e-23
-8.312310892330282195661816e-24
-4.07078375359096822806347e-24
-1.965784399115203227952669e-24
-9.364509911914757083338495e-25
-4.402130364678017177910306e-25
-2.042466752701217913588011e-25
-9.354031397361678643305227e-26
-4.228534259279584109404955e-26
-1.886640235410074812305338e-26
-8.306749637945681639690405e-27
-3.608542341286738552982313e-27
-1.546304633779798544355913e-27
-6.534589594901101095505506e-28
-2.72268030518356056699994e-28
-1.118215602660601006701927e-28
-4.525875828513074406441807e-29
-1.804797713518798263945627e-29
-4.839217313833874268202803e-30
-1.259821616164288378963447e-30
-3.185344909762036971207641e-31