# geometry NO_DATA 884
#  x  y  z
1.997622465439885530713582 0.03573479263930286198291952 1.138112327199417350698241
1.995244930879771061427164 -0.01666666666666666990481716 1.140489861759536927010572
1.997622465439885530713582 0.002401459305969522173285213 1.138112327199417350698241
1.990489861759544343300377 0.007156528426213721108539723 1.145244930879770972609322
1.988112327199432538549217 -0.02142173578689044247114204 1.14762246543988544189574
1.988112327199432316504613 0.03573479263931789162711539 1.14762246543988544189574
1.992867396319650818981017 -0.04524493087977082828032849 1.138112327199416906609031
1.98811232719942454494344 -0.04524493087977082828032849 1.14286739631965095220778
1.98811232719942454494344 0.04524493087977082828032849 1.142867396319651174252385
1.992867396319650818981017 0.04524493087977083521922239 1.138112327199416906609031
2.042543659452061621806251 0.005261956712360211542434119 1.112718297260298250250798
2.035087318904123421248187 -0.01666666666666666296592325 1.120174637808242223968591
2.042543659452061621806251 -0.02807137662097311525677412 1.112718297260298250250798
2.020798186797569950812203 -0.01191159754644057280903446 1.132709784344011039181055
2.013965395238954236845075 0.001753985570790658450948674 1.137788590331835880675726
2.027630978356182112065653 -0.03508731890412399023748691 1.112718297260300248652243
2.011587860678841543915496 -0.03033224978389790008059812 1.135411055771714972095765
2.010964311689515504610881 -0.03508731890412399717638081 1.12287590923594837732935
2.01334184624962819754046 0.03033224978389790355004507 1.125253443796069285909311
2.004131520130900234732962 0.04524493087977391608811573 1.127954715223773218824022
2.027630978356182112065653 0.03508731890412399023748691 1.112718297260300470696848
2.002377534560112692929579 0.03573479263930593591291895 1.138112327199418905010475
2.004755069120225829948367 0.007156528426198694066429074 1.140489861759539813590436
2.002377534560112692929579 -0.02142173578690854257589038 1.138112327199418905010475
2.092083062563728113048001 0.002498375382360327155717439 1.110415312818631816682569
2.084166125127456581367369 -0.0166666666666666664353702 1.118332250254908233344509
2.092083062563728113048001 -0.03083495795097301178655513 1.110415312818631816682569
2.074955799008728174470662 -0.001753985570789940275429619 1.126709784579517981129015
2.073662410326271299254586 0.0008327917941234219039239872 1.127170381467851312251582
2.076249187691182385151478 -0.03416612512745675206415896 1.110415312818634037128618
2.066206069778332654607311 -0.01925344403158002482001621 1.119714040919907782623
2.059582521024515777696706 -0.03416612512745674512526506 1.111336506595300477329147
2.067038861572453978254771 0.01925344403158002828946316 1.11879284714324400695773
2.05828913234205890248063 0.0350873189041232685925209 1.111797103483633808451714
2.076249187691182385151478 0.03416612512745675900305287 1.110415312818634037128618
2.057456340547938022922381 0.005261956712359495969000278 1.112718297260297806161589
2.064912681095876223480445 -0.01315869552509711139232085 1.120174637808241113745567
2.057456340547937578833171 -0.03157934776255371528419502 1.112718297260297584116984
2.141998305441339844890081 0.00198983264802997513939764 1.10999152720668958771455
2.133996610882680222687213 -0.01666666666666666296592325 1.11799322176535520512175
2.141998305441339844890081 -0.03134350068530335209349147 1.10999152720668958771455
2.125246881652285591002283 -0.000832791794122313849303707 1.126079673446408468961977
2.124498846980551025609429 0.0006632775493472867212041422 1.126164430568795893350398
2.125994916324017491859877 -0.03399661088268061959194455 1.109991527206692474294414
2.116581909544279049839588 -0.01816273601013626906586218 1.118247493132519920777668
2.109328249657350884405105 -0.03399661088268061959194455 1.110161041451469543517305
2.117245187093622860174946 0.01816273601013627253530913 1.118077978887745516090035
2.108580214985616763101461 0.03416612512745565571892215 1.110245798573857189950331
2.125994916324017935949087 0.03399661088268061959194455 1.109991527206692474294414
2.107916937436272064587683 0.002498375382359222136863242 1.110415312818631372593359
2.115833874872544484446735 -0.01500108307842976454460349 1.118332250254907567210694
2.107916937436272064587683 -0.03250054153921874688926152 1.110415312818631372593359
2.191987629749611699025991 0.001925778497652799129552514 1.109938148748041086832927
2.183975259499222776327088 -0.01666666666666666990481716 1.117950518998437781093003
2.191987629749611699025991 -0.03140755483568053590959224 1.109938148748041086832927
2.175310287391216679253603 -0.000663277549345839744984743 1.125973564940562443581484
2.174657685533598616700601 0.0006419261658896352733955082 1.12598424063229041180989
2.175962889248829856825296 -0.03397525949922296228944418 1.109938148748044861591211
2.166655990974938106319314 -0.01797187038190213928534611 1.117982546073625460536505
2.159296222582163693459734 -0.03397525949922296228944418 1.109959500131504572806307
2.167297917140823759751811 0.01797187038190213928534611 1.117961194690169524079693
2.158643620724545630906732 0.03399661088267916936311863 1.109970175823232541034713
2.175962889248830300914506 0.03397525949922296228944418 1.109938148748044861591211
2.158001694558660421563445 0.001989832648028530548423021 1.109991527206688921580735
2.166003389117320487855523 -0.01534011156798397584877236 1.117993221765353872854121
2.158001694558659977474235 -0.03267005578399648224596774 1.109991527206688921580735
2.242021334568212953541888 0.002128007409254844325280365 1.110106672841041808297291
2.234042669136425907083776 -0.01666666666666666296592325 1.118085338272840179030254
2.242021334568212953541888 -0.0312053259240784933159496 1.110106672841041808297291
2.225388372720149110506327 -0.0006419261658872328982217148 1.126030298886036229433216
2.22471274173565891629778 0.0007093358030925665802524094 1.12599659406743368705861
2.226064003704632643376726 -0.03404266913642588210375806 1.110106672841046915323204
2.216700371485269105420457 -0.01801792863564645810758869 1.117984223817038103021559
2.209397337037965591832744 -0.03404266913642588210375806 1.110039263203847159644511
2.217409707288355846799277 0.01801792863564647545482345 1.118051633454242743681561
2.208721706053475841713407 0.03397525949922058918772905 1.11000555838524483931451
2.226064003704632643376726 0.03404266913642589598154586 1.110106672841047137367809
2.208012370250389544423797 0.001925778497650416920539129 1.109938148748039976609903
2.21602474050077935530112 -0.01538281433490349195403191 1.117950518998435338602349
2.208012370250389544423797 -0.03269140716745741470639075 1.109938148748039976609903
2.292125936372524375173043 0.002755618235111171460127721 1.110629681862586703999796
2.28425187274504892798177 -0.01666666666666665602702935 1.118503745490079914759463
2.292125936372524819262253 -0.03057771509822216488005964 1.110629681862586703999796
2.27556387151017114334195 -0.0007093358030884958347755953 1.126273207313259305806241
2.274749933902769249982612 0.0009185394117151354093087079 1.126168605508945930182563
2.276377809117563266738671 -0.03425187274504844919809088 1.110629681862594475560968
2.26677126847097998307845 -0.0182945418814702900900393 1.118189940077149557851044
2.259711142450896659283899 -0.03425187274504844919809088 1.110420478253977716320833
2.26768980788268592618806 0.01829454188147031090672101 1.118399143685774088652352
2.258897204843494765924561 0.03404266913642185754529379 1.110315876449664340697154
2.276377809117563266738671 0.03425187274504846307587869 1.110629681862594475560968
2.257978665431789266904161 0.002128007409250805455347422 1.110106672841039809895847
2.265957330863578533808322 -0.01524799506050436917470314 1.118085338272836182227365
2.257978665431789266904161 -0.03262399753025956028462673 1.110106672841039809895847
2.342490238985358352863386 0.004941433912087189912754059 1.112451194926728392786686
2.334980477970716172819721 -0.01666666666666665602702935 1.119960955941401881119646
2.342490238985357908774176 -0.02839189942124614729479504 1.112451194926728392786686
2.32618787493152900935911 -0.0009185394117086252089438014 1.1271064143432376614129
2.324905032906983137763746 0.001647144637383701065713737 1.126742111730400175417799
2.327470716956057117386081 -0.03498047797071701658921938 1.112451194926742381596796
2.317030969279504137858794 -0.01923235071575898208484645 1.118868048102910517371811
2.310804050289390509931309 -0.03498047797071701658921938 1.111722589701088503844062
2.31867811391686950983626 0.01923235071575900290152816 1.119596653328578383934655
2.309521208264844638335944 0.03425187274504198908786634 1.111358287088251017848961
2.327470716956057117386081 0.03498047797071702352811329 1.112451194926742381596796
2.307874063627479266358478 0.002755618235104694002668424 1.110629681862583595375327
2.315748127254957822174219 -0.01482958784327061130259295 1.11850374549007303137671
2.307874063627479266358478 -0.03241479392164592354674824 1.110629681862583595375327
2.394725766779678188811431 0.0183546006778998044284279 1.12362883389822165725036
2.389451533559356466440704 -0.01666666666666665602702935 1.128903067118628200660169
2.394725766779678188811431 -0.01497873265543353017703598 1.12362883389822165725036
2.380294627907337812189326 -0.00164714463737107921770253 1.13194177254470851323731
2.376411955475640436219464 0.006118200226022918117307903 1.129706244750382726493854
2.384177300338984117900054 -0.03945153355935623884498398 1.123628833898255630074914
2.368902194460992483016071 -0.02443201153006065509676326 1.122196483735715455409832
2.367510633672317510445282 -0.03945153355935623884498398 1.119157778309668893612638
2.375020394686965019559466 0.02443201153006067244399802 1.12666753932433616469666
2.363627961240620134475421 0.0349804779707044294356777 1.116922250515342884824577
2.384177300338984117900054 0.03945153355935624578387788 1.123628833898255630074914
2.357509761014647597932026 0.004941433912074595820318468 1.112451194926722175537748
2.365019522029295551135419 -0.01337237739196316110845686 1.11996095594138944662177
2.357509761014647597932026 -0.0316861886960009206393174 1.112451194926722175537748
2.426371166101566334560857 -0.01835460067809466938593133 1.144725766779660869332247
2.421096932881291685646374 0.004430266214560751522610893 1.139451533559322049526941
2.426371166101566334560857 0.02721513310721617243115311 1.144725766779660869332247
2.415822699660952643796463 -0.03945153355932208560918895 1.134177300338932603551712
2.415822699660952643796463 0.03945153355932208560918895 1.134177300338932603551712
2.405274233220338508942859 0.01835460067786564425373896 1.123628833898204337771176
2.41054846644067755079277 -0.004430266214789773185356303 1.128903067118593783746405
2.405274233220338508942859 -0.02721513310744519409389852 1.123628833898204337771176
1.942369445884052137074605 0.004216675304315730191118128 1.161847229420263305499361
1.93473889176810431855813 -0.01666666666666666296592325 1.169477783536210235837416
1.942369445884052137074605 -0.02911665802901760441434575 1.161847229420263527543966
1.91942710447998710066031 -0.01395690790956838518710459 1.184738891768104984691945
1.911745871307817257189754 -0.0320291330110064054181862 1.192369445884052581163814
1.911745871307817257189754 0.004115317191869635911338765 1.192369445884052581163814
1.927108337652152059149557 -0.03473889176810468493172834 1.161847229420257754384238
1.911796550364034397162527 -0.03473889176810468493172834 1.177108337652152281194162
1.911796550364034397162527 0.03473889176810468493172834 1.177108337652152281194162
1.927108337652152059149557 0.03473889176810468493172834 1.161847229420257754384238
1.987134207541713326605759 0.0004452199905166770964315415 1.163311012448803305474598
1.981401018763743859807391 -0.01191159754645521387517171 1.16948942121728927112656
1.974742440773127327702241 -0.001405558434777875705459782 1.176147999207905581187106
1.973817051560480040350853 0.0004452199905166747653968706 1.176628168430036369684899
1.973290295425667473239173 -0.02902348420363855610593085 1.161378697879212218424527
1.976645949643515809412975 -0.04524493087978855021535907 1.152822754550620665270344
1.966186497444535774548058 -0.0185174450919612133825698 1.168997614314086330722375
1.959001163319106453286622 -0.03377855332385000519668239 1.160406721753878489522549
1.966631717435050719089418 0.01851744509196121685201675 1.168037275869828750529678
1.958075774106459165935235 0.03473889176811121443089192 1.160886890976009278020342
1.984756672981592418025798 0.0290234842036385595753778 1.160933477888697495927772
1.970912760865546786703817 0.03377855332385001213557629 1.159001163319106630922306
1.990489861759562106868771 -0.01666666666666666296592325 1.15475506912021153027581
1.98811232719944119828881 0.002401459306002271150426441 1.152377534560105942773589
1.98811232719944119828881 0.03573479263933560662325206 1.152377534560105942773589
1.957630554115944221393875 0.004216675304322252751387801 1.161847229420266636168435
1.96526110823188848719667 -0.01385554979712228830524001 1.169477783536216897175564
1.957630554115944221393875 -0.0319277748985668310965913 1.16184722942026685821304
2.441901651736700262773638 0.00140991042017451985619847 1.159508258683474402062075
2.433803303473400347911593 -0.01666666666666666296592325 1.167606606946787195511206
2.441901651736700262773638 -0.03192342291315881236402063 1.159508258683474402062075
2.425301049190050850512534 -0.0003378419000327644830701523 1.175638891090083015811274
2.424897143170000823886312 0.0004699701400666246413340144 1.175572826970066042662211
2.424391018064233627171689 -0.02325483703289375758682667 1.16384255162361971436269
2.43578345151064734608326 -0.03380330347339995100686139 1.15903828854342050291848
2.422006964006937046463008 -0.006926012266259854929795203 1.172344805906969433806353
2.422006964006937046463008 0.006926012266259856664518679 1.172344805906969433806353
2.424391018064233627171689 0.02325483703289375758682667 1.16384255162361971436269
2.43578345151064734608326 0.03380330347339996488464919 1.15903828854342050291848
2.426371166101480625343356 -0.01835460067826638272392437 1.155274233220253021769963
2.421096932881120267211372 0.004430266214560748053163941 1.160548466440506132357768
2.426371166101480625343356 0.0272151331073878822996992 1.155274233220253021769963
2.418712878823823686502692 0.0003378419000327655130622162 1.169050720723855851801432
2.421603057986887463925996 -0.00611820022616046607644158 1.17227874178695246065729
2.492112821112598464168286 0.002676926675557023127538514 1.160564105562958081563352
2.484225642225197816514992 -0.01666666666666666990481716 1.168451284450377380963459
2.492112821112598464168286 -0.0306564066577763166820958 1.160564105562958081563352
2.475657323821834232546735 -0.0004699701400598188874568883 1.176127293961894526574952
2.474976184305872184410191 0.0008923088918646095851761046 1.175916124585992372786336
2.476338463337786066631452 -0.03422564222519794419063999 1.160564105562965631079919
2.466877836042569160923676 -0.01802894569859109230591798 1.167817776322682910006279
2.45967179667111945917668 -0.03422564222519794419063999 1.160141766811173091866749
2.467770144934422482663194 0.01802894569859109924481189 1.168240115074482554646806
2.458990657155156966950926 0.03380330347339315782972946 1.159930597435271160122738
2.476338463337786066631452 0.03422564222519794419063999 1.160564105562965631079919
2.458098348263303645211408 0.001409910420167715620204385 1.159508258683471071393001
2.466196696526607112787133 -0.01572672638655877100366531 1.167606606946780534173058
2.458098348263303201122199 -0.03286336319328525545913067 1.159508258683471071393001
2.543388153894678538335938 0.01032892336797927752833903 1.166940769473300498759727
2.536776307789357254307561 -0.01666666666666666296592325 1.173552615578668634199744
2.543388153894678538335938 -0.02300440996535405707712485 1.166940769473300498759727
2.527996820010095291308971 -0.0008923088918569403726888112 1.178889128901952965122746
2.52582917833615461233876 0.00344297445602445399692737 1.177613796119869160605731
2.530164461684001331320815 -0.03677630778935778860239125 1.166940769473312711212998
2.517941999448749967882577 -0.02100195001454806253970986 1.169726617232453635963907
2.513497795017334723866043 -0.03677630778935778860239125 1.164390103909181517494176
2.521384973904739368322225 0.02100195001454806600915681 1.172277282796597042136
2.511330153343394044895831 0.03422564222519027671287617 1.163114771127097712977161
2.530164461684001331320815 0.03677630778935778860239125 1.166940769473312933257603
2.507887178887404644456183 0.002676926675549355649774697 1.160564105562954084760463
2.515774357774809288912365 -0.01488204888297425462773127 1.168451284450369609402287
2.507887178887404200366973 -0.03244102444149786490523724 1.160564105562954306805068
2.583149315673278323401973 -0.01023883822139398311334979 1.193388153894672676358368
2.576492426994629880709908 0.009870802901284747923882357 1.186776307789345397125658
2.583149315673278323401973 0.0299804440239634789611145 1.193388153894672676358368
2.569880580889302823521803 -0.03677630778934539573787887 1.180164461683983478934579
2.569880580889302823521803 0.03677630778934540267677278 1.180164461683983478934579
2.556611846105327323641632 0.01032892336796688639855013 1.166940769473294281510789
2.563223692210654380829737 -0.009780717754711842903958541 1.173552615578656199701868
2.556611846105326879552422 -0.02989035887739057220646721 1.166940769473294281510789
1.892388039163360957672921 0.004224439650970641946248207 1.211836400487610099219182
1.884776078326721560074475 -0.01666666666666668031315801 1.219500258988845953211921
1.892388039163360957672921 -0.02910889368236269439393915 1.211836400487610099219182
1.869552156653434327182595 -0.013781176679907379545309 1.234776078326721204803107
1.861940195816786713933766 -0.03189058833996200048588321 1.242388039163360602401553
1.861940195816786713933766 0.004328234980147250068882592 1.242388039163360602401553
1.877164117490071948424202 -0.03477607832672129778428527 1.211888298152196563606253
1.861940195816785159621531 -0.03477607832672130472317917 1.227164117490072037242044
1.861940195816785159621531 0.03477607832672129084539137 1.227164117490072037242044
1.877164117490072392513412 0.03477607832672129084539137 1.211888298152196785650858
1.926346510741517636944309 0.0002914167847243180403324359 1.223944906043206160006775
1.925891817959302088070217 -0.001200802349156154889137094 1.224691015610146260783608
1.924674912086050238002599 -0.001233009397346895375316422 1.225907921483397888806621
1.923912698995014602942888 0.0002914167847243184198031962 1.226378717789709194008196
1.917744084824624994922715 -0.01815888580054714207534516 1.216543282475469389680711
1.910619922477479137867817 -0.03453413568248948906092011 1.208064240749773921024257
1.91619587036035499139075 -0.0181910928487378845130884 1.218819727086493553969149
1.908810350316713755347564 -0.03362475011805765578998262 1.210201197645505377664676
1.916527178951373588944307 0.0181910928487378845130884 1.217760188348721017703724
1.908048137225678342332458 0.03456634273068023149866335 1.210671993951816904910856
1.91876765561215578692611 0.01815888580054714207534516 1.216211973884450792127154
1.910165229695263144904516 0.03362475011805765578998262 1.208810350316714243845695
1.919222348394371779889411 -0.01666666666666666990481716 1.215465864317510469305716
1.911643493265009485782002 -0.02942277222707890063646552 1.2077329321587553234707
1.911643493265009485782002 0.003910561106254439173168791 1.2077329321587553234707
1.907716828634659744778901 0.004014704054929584334243664 1.211731532689589663220886
1.915433657269319356331039 -0.01388497200908398072904948 1.219290523392805081215329
1.907716828634659744778901 -0.03178464807309754058817219 1.211731532689589663220886
2.591950886420674837751221 0.001763157487222215703132067 1.209812271066546873754532
2.58390177284135003077381 -0.01666666666666666990481716 1.217832465164286448455755
2.591950886420674837751221 -0.03157017584611111760128921 1.209812271066546873754532
2.575410678559988397751113 -0.0003155218960564537306230648 1.225726200456045411613104
2.574968697857951571705826 0.0005684395080172169540180804 1.225599741650065022113836
2.578589149171867322962726 -0.02049605024025016181132841 1.215320414387892178353923
2.58855295453798373017662 -0.03390177284135055535418957 1.209214912076944425933789
2.573495986773196797514629 -0.004144905469639944065041171 1.22381150866925381137662
2.573495986773196797514629 0.004144905469639940595594219 1.22381150866925381137662
2.578589149171867322962726 0.02049605024025015834188146 1.215320414387892178353923
2.58855295453798373017662 0.03390177284135055535418957 1.209214912076944425933789
2.583240330868501022365535 -0.01005680783094819487344385 1.206702861300550377876561
2.576674457385075278637032 0.009870802901284746189158881 1.213405722601100578117439
2.583240330868501022365535 0.02979841363351768551703813 1.206702861300550155831957
2.571581294986405197278145 0.0003155218960564504238064387 1.221896816882461767050927
2.573054006071160415558552 -0.003260944065566273759870786 1.223685049863273421877352
2.642712958511258758420581 0.006277751067509954041589992 1.213564792556251381583365
2.635425917022517161569795 -0.01666666666666666990481716 1.22085183404501362858241
2.642712958511258758420581 -0.02705558226582337535970346 1.213564792556251381583365
2.626789095818779173896473 -0.0006069757408099449042665485 1.227396071559588852650791
2.625439316103782338984729 0.002092583689183926797666713 1.226653267585402051764731
2.628108744022188414390939 -0.0354259170225172809187697 1.213534661044684437314345
2.617409470640853719203278 -0.01936622609666055136456997 1.218613805371266067822944
2.611442077355521362846957 -0.0354259170225172809187697 1.212039436345124343574753
2.619471922818449982628408 0.01936622609666053401733521 1.22007889855925988342733
2.610092297640524527935213 0.03394030907414326281301697 1.211296632370937098599484
2.628108744022188414390939 0.0354259170225172739798758 1.21353466104468465935895
2.608029845462928264510083 0.001801693720014922728278606 1.209831539182943282995097
2.616059690925856884291534 -0.01547194868746168405770902 1.21787100139707904489228
2.608029845462928264510083 -0.03274559109493827696590884 1.209831539182943282995097
2.686806325384877514039772 -0.005906633126378742215667472 1.242712958511255516569349
2.679333724925556214913058 0.01285261722946534103384497 1.235425917022511033138699
2.686806325384877514039772 0.03161186758530942775280437 1.242712958511255294524744
2.672046683436811065348593 -0.03542591702251075141960612 1.228138875533751894764123
2.672046683436811065348593 0.03542591702251074448071222 1.228138875533751672719518
2.657287041488745060746623 0.006277751067503428011873368 1.213564792556248050914292
2.664574082977489766221879 -0.0124814992883406535029156 1.220851834045007411333472
2.657287041488745060746623 -0.03124074964418473154825762 1.213564792556248272958896
1.876692559041008401266026 0.0004996280952310673973554289 1.27380706905422291796981
1.876221000591927534628667 -0.001442744993392658424749553 1.274778255598534970616242
1.867665922857125515577081 -0.01566741047621137902789989 1.283832961428564622963222
1.859582403571403919073646 -0.03283370523810912045004073 1.291916480714282222663769
1.859582403571404363162856 0.001498884285686378440433097 1.291916480714282222663769
1.868137481306205049946811 -0.01860903975529040396685865 1.266694736312812263889782
1.860997078918635860844688 -0.03477607832672598153767041 1.258111588931863256135557
1.859582403571402808850621 -0.03383296142856442867419275 1.275749442142841916236762
1.859582403571402808850621 0.03383296142856441479640495 1.275749442142841916236762
1.869080598204358345526543 0.01860903975529037968072998 1.266195108217585962862017
1.860525520469554994207328 0.03383296142856441479640495 1.25908277547617530878199
1.869552156653439212163903 -0.01666666666666667684371106 1.265223921673273910215585
1.86194019581678915642442 -0.02900509835318140078319615 1.257611960836637177152397
1.86194019581678915642442 0.004328234980151933822267729 1.257611960836637177152397
2.691875461099557220734368 0.001655728506540087192899779 1.259780267406983789157948
2.683750922199113819743843 -0.01666666666666665602702935 1.267703325352826482230739
2.691875461099557220734368 -0.03167760482679325001464932 1.259780267406983789157948
2.675321829483940039295931 -0.0001915187636809174997511163 1.275513348247619749287196
2.675017275669209659838543 0.0004175888657793131375148277 1.275400313196570545315467
2.680974667448015935633521 -0.01840512673166090629184311 1.266215025499948687581764
2.689968436380956617881566 -0.03375092219911263180520677 1.259161197586603275766493
2.674452599451442758038411 -0.001929978828675165975631289 1.274644118215122468029676
2.674452599451442758038411 0.001929978828675203922707326 1.274644118215122690074281
2.680974667448015935633521 0.01840512673166092710852482 1.266215025499948909626369
2.689968436380956617881566 0.03375092219911263874410068 1.259161197586603275766493
2.687192181629858289682034 -0.005134920636416268058255241 1.257672897733725703162122
2.680105437415518654376001 0.01285261722946536185052668 1.265345795467451406324244
2.687192181629858289682034 0.0308401550953469778815208 1.257672897733725925206727
2.673583369418945920870101 0.0001915187636809554468271533 1.273774888182625186772157
2.674148045636712822670233 -0.001320871199214935284155237 1.274531083164073264057947
2.743469584961670371114906 0.01081750976999994520721948 1.267347924808329029389142
2.736939169923341186319021 -0.01666666666666666296592325 1.273878339846670870727507
2.743469584961670371114906 -0.02251582356333338766352092 1.267347924808329029389142
2.728263274406535376925831 -0.00068512436694572885660659 1.278948398773481542889385
2.726117793928058308239315 0.003605836590008470315948941 1.277488042661950151668293
2.730119545836628081048048 -0.0369391699233417997172424 1.267058715759957543411929
2.718127022778197954266943 -0.02095762762362086278900009 1.269431216965524189532744
2.713452879169962361771695 -0.0369391699233417997172424 1.264071948990342031393652
2.721443650319822271654857 0.02095762762362087319734094 1.272128774686767993529202
2.71130739869148484899597 0.03401845770027907278620916 1.26261159287881064017256
2.730119545836628081048048 0.0369391699233418066561363 1.267058715759957543411929
2.707990771149860975697266 0.001923264007706521451848691 1.259914035157567058220707
2.715981542299720885580427 -0.01542852702590588077902201 1.267970860853993020356256
2.707990771149860975697266 -0.03278031805951828192569053 1.259914035157567058220707
2.782652075191645479890212 -0.01081750977002355826317448 1.293469584961669305300802
2.776121660153318959629587 0.009454993486647918221610354 1.286939169923338344148078
2.782652075191645479890212 0.02972749674331940164528909 1.293469584961669305300802
2.769591245114987998476863 -0.03693916992333814985904894 1.280408754884998279166552
2.769591245114987998476863 0.03693916992333814985904894 1.280408754884998057121948
2.756530415038330517063514 0.01081750976999628667540865 1.267347924808327253032303
2.763060830076661478216238 -0.009454993486675198482993565 1.273878339846667318013829
2.756530415038330517063514 -0.02972749674334667149833145 1.267347924808327253032303
1.875695705639143229248589 0.0003921550878184734559642188 1.324696449448675039661794
1.875641969135435349613772 -0.000499628095234074215240383 1.325142341040201232615914
1.867450976842299326108332 -0.01588235649103821034433537 1.333725488421151794682373
1.859313721052871182237709 -0.03294117824552335316301566 1.341862744210575941750108
1.859313721052871182237709 0.001176465263446946352132727 1.341862744210575941750108
1.867504713346006095520124 -0.01755844984971922234651132 1.317005085250772200566871
1.859474930563991268428481 -0.03383296142856739852078363 1.308475674373529518135228
1.859313721052870294059289 -0.03372548842115181966239135 1.325588232631722762633331
1.859313721052870294059289 0.03372548842115181272349744 1.325588232631722540588726
1.867612186353420522522129 0.01755844984971920846872351 1.316612930162958772228876
1.859421194060283610838269 0.03372548842115181966239135 1.308921565965055933133954
1.86766592285712818011234 -0.01666666666666667684371106 1.316167038571432579274756
1.85958240357140547338588 -0.03183444904764397287433297 1.308083519285716089797234
1.85958240357140547338588 0.001498884285689358478524391 1.308083519285716089797234
2.792499137837890721414169 0.004994827027339522433624364 1.312495689189448810907379
2.784998275675781620464022 -0.01666666666666664214924154 1.319996551351560576392785
2.792499137837890721414169 -0.02833850630599381303920126 1.312495689189448810907379
2.776451264169267574288824 -0.0004273563463625112556106 1.326878620515629769727184
2.775405114824862184974563 0.001664942342448344405475558 1.326259827517586975531572
2.7787570496195415081786 -0.02193744559912936403778261 1.315696219542883627084962
2.788893301247882039461956 -0.03499827567578162046402213 1.310830746847003291932765
2.773815874703036143955615 -0.005698135278825238077271553 1.324243231049398339393974
2.773815874703036143955615 0.005698135278825335221786208 1.324243231049398339393974
2.77875704961954106408939 0.02193744559912942648782774 1.315696219542883627084962
2.788893301247881595372746 0.03499827567578164128070384 1.31083074684700306988816
2.782652075191641038998114 -0.01081750977003315995761401 1.306530415038326342624941
2.77612166015331007784539 0.009454993486647956385526825 1.313060830076652418796357
2.782652075191640594908904 0.02972749674332904323836857 1.306530415038326120580336
2.771180485236804713622405 0.0004273563463626084001252547 1.321607841583166909060765
2.772769725358630754641354 -0.00360583659001438225355507 1.323624438051355545198362