# geometry NO_DATA 684
#  x  y  z
2.049229968972181126218857 0.04828129124553036388700633 1.249051322273349251545937
2.048459937944361541894978 -0.01666666666666666990481716 1.248370614594945582354057
2.049229968972181126218857 0.01494795791219702754681897 1.249051322273349251545937
2.04818550904492147068936 0.01611780886778585095142624 1.248459937944361275441452
2.048681111173300095629202 -0.01567546240990921185831652 1.249229968972180637720726
2.048681111173300095629202 0.04791108014548091376116901 1.249229968972180637720726
2.049171418254108090195587 -0.04845993794436173618400687 1.249082094904691908610062
2.048896989354667574900759 -0.04845993794436173618400687 1.249171418254107823742061
2.048896989354667574900759 0.04845993794436173618400687 1.249171418254107601697456
2.049171418254108090195587 0.04845993794436173618400687 1.249082094904692130654666
2.083889129833942366332167 0.01555507366544853914414048 1.232221740332115178517824
2.091944564916970783485795 0.03277753683272426055150817 1.240277175415143817716057
2.091944564916970783485795 -0.001667389501827189202121104 1.240277175415143817716057
2.083005622978212567630862 -0.01762620223755916037955416 1.232449826477603593843924
2.091540825846687656763834 -0.03388912983394239131218484 1.240429232845469353918588
2.074394391394574821418928 -0.03373707240361676490403298 1.240971734711825646968464
2.074394391394574821418928 0.03373707240361676490403298 1.240971734711825646968464
2.083005622978213011720072 0.01762620223755916037955416 1.232449826477603593843924
2.091540825846687656763834 0.03388912983394239131218484 1.240429232845469353918588
2.075353926965467721288405 -0.0004037390702834333343351769 1.22424233396424941844316
2.074874159180021493398272 0.0005557965006090614772105152 1.224318362679412075522123
2.066262927596383747186337 0.01648801996783530107726357 1.232840270913634128646663
2.058131463798192228864536 0.03355842570478539954592634 1.24128615043269352469224
2.058131463798191784775327 -0.000582385769114800210324856 1.24128615043269352469224
2.134003423929611731324485 0.01532648547410946950064758 1.231993152140775871217215
2.142001711964805821253321 0.03266324273705474567908169 1.239991440175969961146052
2.142001711964805821253321 -0.002010271788835800606254356 1.239991440175970183190657
2.13283468388055919007229 -0.01789255376355433288515506 1.232164593284280407203823
2.141445915464196936284225 -0.03400342392961193394018693 1.240105734271639725818659
2.124166305249086228457145 -0.03388912983394239131218484 1.240277175415144039760662
2.124166305249086228457145 0.03388912983394239131218484 1.240277175415144039760662
2.13283468388055874598308 0.01789255376355433635460201 1.232164593284280407203823
2.141445915464196492195015 0.03400342392961194781797474 1.240105734271639503774054
2.125392192345973985112551 -0.0005557965006090614772105152 1.224052011153416774646985
2.124779248797529884740243 0.0006700905962786025873295648 1.224109158201251768005591
2.116110870166057367214307 0.01555507366544853914414048 1.232221740332115178517824
2.10805543508302850597147 0.03277753683272426055150817 1.240277175415143817716057
2.10805543508302850597147 -0.001667389501827188551599801 1.240277175415143817716057
2.184026723995894148089292 0.01527988534154541347409584 1.231946552008212236728468
2.192013361997947384907093 0.03263994267077269251231542 1.239933190010265029457059
2.192013361997946496728673 -0.002080171987681879441911548 1.239933190010265029457059
2.182674892770195995694849 -0.01803014792550587663821915 1.23198150210763501810618
2.191343271401668069131574 -0.03402672399589395241248369 1.23995649007654717976834
2.173994864105582180968668 -0.03400342392961193394018693 1.239991440175970183190657
2.173994864105581292790248 0.03400342392961194781797474 1.239991440175970183190657
2.182674892770195995694849 0.01803014792550590092434781 1.231981502107635240150785
2.191343271401668069131574 0.03402672399589395935137759 1.23995649007654717976834
2.175358345364421630563356 -0.0006700905962785845895735015 1.223971564039300297110913
2.174676604735001905766012 0.0006933906625606353710949969 1.223983214072441150221948
2.165996576070388091039831 0.01532648547410948164371192 1.231993152140775871217215
2.157998288035194001110995 0.03266324273705474567908169 1.239991440175969739101447
2.157998288035194001110995 -0.002010271788835795402083928 1.239991440175970183190657
2.233962172999854889354765 0.01540898733362331719798366 1.232075654000289732792339
2.241981086499927222632778 0.03270449366681167646664363 1.240094567500362510159562
2.241981086499927222632778 -0.001886518999565067224166715 1.240094567500362288114957
2.232607667172752829998217 -0.01798889699574895625899806 1.231978827506231555233285
2.241287695837366644724398 -0.0339621729998550170304128 1.240030016504323429060719
2.223959914006158555821457 -0.03402672399589393853469588 1.239933190010265029457059
2.223959914006158999910667 0.0340267239958939732291654 1.239933190010265029457059
2.232607667172752829998217 0.0179888969957490187090432 1.231978827506231555233285
2.241287695837366644724398 0.03396217299985505866377622 1.240030016504323429060719
2.225282144335241074628584 -0.0006933906625605759568159447 1.224024465002197858964905
2.224621029170699593180416 0.0006288396665217463928770902 1.223992189504178540460089
2.215973276004105319003656 0.0152798853415454308213306 1.231946552008212236728468
2.207986638002052970364275 0.03263994267077270639010322 1.239933190010265029457059
2.207986638002052526275065 -0.002080171987681871201975037 1.239933190010265029457059
2.283856533305466562921993 0.01562026672239964428245962 1.232286933389066252431121
2.291928266652733192643154 0.03281013336119981138594426 1.240358666736332660107678
2.291928266652733192643154 -0.001569599916400538867217174 1.240358666736332660107678
2.282651673819617421656858 -0.01781870630532184085481617 1.232128473847484029235488
2.291299426986211695833617 -0.03385653330546684047774875 1.240253027041944733355194
2.274056740500217443923248 -0.03396217299985500315262499 1.240094567500362288114957
2.274056740500217443923248 0.0339621729998550170304128 1.240094567500362510159562
2.282651673819617421656858 0.01781870630532186514094484 1.232128473847484251280093
2.291299426986211251744407 0.03385653330546685435553655 1.240253027041944733355194
2.275208780138872288745233 -0.0006288396665216560788361222 1.22416238019460577035602
2.274632760319544644289635 0.0005231999721335273394878795 1.224109560347411695957476
2.266037827000144666556025 0.01540898733362330158547238 1.232075654000289954836944
2.258018913500072333278013 0.03270449366681163483328021 1.240094567500362510159562
2.258018913500072333278013 -0.001886518999565046841165872 1.240094567500362288114957
2.333751229606455090959116 0.01583154681041881728376097 1.23249787713208736050774
2.341875614803227811933084 0.03291610975020779761290868 1.240622598673857712725521
2.341875614803227811933084 -0.001253016129370150468641532 1.240622598673857712725521
2.33275789988383142059547 -0.01760776291192250181394385 1.232340003610709278092372
2.341352833203231398329081 -0.03375122960645564329507096 1.24051737700198527747375
2.324215618413936645936246 -0.03385653330546686129443046 1.240359085108470038605333
2.324215618413936645936246 0.03385653330546685435553655 1.240359085108469816560728
2.33275789988383097650626 0.01760776291192248446670909 1.232340003610709278092372
2.341352833203231398329081 0.03375122960645564329507096 1.24051737700198527747375
2.325156296287055113225506 -0.0005231999721335307005146142 1.224320503740811361126362
2.324685748164427412376654 0.0004178962731222929144654643 1.224267851891305713962765
2.31614346669453308180664 0.01562026672239962173105443 1.232286933389066252431121
2.308071733347266452085478 0.03281013336119981138594426 1.240358666736332660107678
2.308071733347266452085478 -0.001569599916400560984941492 1.240358666736332882152283
2.37777936715455417981957 0.004902976973078947142692385 1.227123609818523863879136
2.380066916307086444248853 -0.0003278786680150716785660248 1.229739037639071108642952
2.376481213335267739239498 -0.006843527275620851953175094 1.238236310306412235604512
2.37060796121091810206849 -0.02841317091536647854166375 1.244118155153206117802256
2.3706079612109185461577 0.01472611636412474861446142 1.244118155153206117802256
2.377407152415758062602436 -0.005647406450670635139066356 1.227079273747743393130349
2.36890987974841760177469 -0.02198619444932220848287763 1.235158986486960319695072
2.36569639151539545807168 -0.03823631030641226613564498 1.243700595225082139450024
2.368909879748417157685481 0.02198619444932222583011239 1.235158986486960319695072
2.36569639151539501398247 0.0382363103064122938912206 1.243700595225082139450024
2.377407152415758506691645 0.00564740645067064207796026 1.227079273747743393130349
2.375119603263226242262363 -0.0004165508095766175646404439 1.224463845927196148366534
2.374747388524430569134438 0.00032787866801507856324982 1.224419509856415455573142
2.366250115857089220128273 0.01583154681041881728376097 1.232499222595632382137865
2.358125057928544876517662 0.03291476428666209597118097 1.240623271405630223540584
2.358125057928544876517662 -0.001251670665824449260594697 1.240623271405630223540584
1.984526834255565974629576 0.01427966482220097317601404 1.280946331488867606651638
1.992263417127782876292486 0.03213983241110046629174235 1.288682914361084508314548
1.992263417127782876292486 -0.003580502766698518638671667 1.288682914361084508314548
1.989162939301658328261624 -0.003004472838009802394820813 1.292167412139668236648049
1.981330351441326742545357 0.0146636847746601239883546 1.284334824279336650931782
1.989162939301658328261624 0.03233184238733004256527437 1.292167412139668236648049
1.983445864598694763358822 -0.01818298038606935840277856 1.282252363676462225683395
1.991940604330612929473432 -0.03452683425556615781637504 1.289553602486147587669052
1.982348368664576643283226 -0.01799097040983978906814045 1.28334985961058034575899
1.989841617450491817464808 -0.03433482427933659542063083 1.2918445993424985118736
1.982348368664576643283226 0.01799097040983978906814045 1.283349859610580123714385
1.989841617450491817464808 0.03433482427933659542063083 1.2918445993424985118736
1.983445864598694763358822 0.01818298038606935840277856 1.282252363676462225683395
1.991940604330612929473432 0.03452683425556615781637504 1.289553602486147365624447
1.976032094523647586470361 -0.000322812797169863986007643 1.273645092679182244665981
1.97527393766394632201866 0.001193500922232824295113329 1.274080436741713784343233
1.974176441729828201943064 0.001001490946003256261517822 1.275177932675831904418828
1.97383710265541134631917 -0.0003228127971698636607469912 1.275840084547418484817172
2.039601986383876575104068 -0.03452683425556615781637504 1.273209748616650482944124
2.023209748616650038854914 -0.03452683425556615781637504 1.288682914361084286269943
2.023209748616650038854914 0.03452683425556615781637504 1.288682914361084286269943
2.039601986383876575104068 0.03452683425556615781637504 1.273209748616650482944124
2.040521058406669308027404 -0.001742358721113640429578595 1.257736582872216679618305
2.031865403511659451396554 0.01611780886778585095142624 1.265473165744433359236609
2.040521058406669308027404 0.03397797645668534233243108 1.257736582872216679618305
2.015473165744433359236609 0.01427966482220097317601404 1.280946331488867162562428
2.007736582872216679618305 0.03213983241110046629174235 1.288682914361084286269943
2.007736582872216679618305 -0.003580502766698518638671667 1.288682914361084286269943
2.388247764480790458208048 0.006837804371751018267522326 1.27350447103841757368059
2.394123882240394962650498 0.02841890218587560246188417 1.27938058879802207812304
2.394123882240394962650498 -0.01474329344237360929492642 1.27938058879802207812304
2.382368785269250999192536 -0.03824776448079125062973205 1.26762835327881306923814
2.382368785269251443281746 0.03824776448079129920198937 1.26762835327881306923814
2.376492667509647382928506 -0.01666666666666662480200678 1.261752235519208786840295
2.370613688298107923912994 -0.01859576279482958588440411 1.25587611775960450444245
2.370613688298107923912994 0.01473757053850375045578325 1.255876117759604282397845
2.434479852467531735271677 0.01437362839826953828104017 1.281040295064936440638803
2.442239926233765956453681 0.03218681419913477226302234 1.288800368831170439776201
2.442239926233765956453681 -0.003439557402595695700942002 1.288800368831170439776201
2.426534946179245810782277 -0.02272761694832315174097381 1.275388427045047290420143
2.437325495086307913794599 -0.03447985246753189347845847 1.285032456817911006297095
2.417628353278812980420298 -0.03824776448079125756862595 1.279380588798021856078435
2.417628353278812980420298 0.03824776448079128532420157 1.279380588798021856078435
2.426534946179246254871487 0.02272761694832319337433724 1.275388427045047290420143
2.437325495086308357883809 0.03447985246753190735624628 1.28503245681791078425249
2.423689303560469632259355 -0.004914431147457914289544689 1.271396265292072946806456
2.420658828419641750429037 0.001146519134198606144209309 1.269512309285442785977693
2.411752235519208475977848 0.006837804371751011328628422 1.27350447103841757368059
2.405876117759603971535398 0.02841890218587559552299027 1.27938058879802207812304
2.405876117759603971535398 -0.01474329344237361102964989 1.27938058879802207812304
2.483865406034814871105709 0.01560476304013015159954936 1.28227030881858294897313
2.49193270301740721350825 0.0328035024082788326249549 1.290338726689389092783244
2.49193270301740721350825 -0.001593976328018531160579663 1.290338726689389092783244
2.481881914496702812300555 -0.01834525850234722255116537 1.28134984179522115610439
2.490788507397135198573324 -0.03386540603481534572605227 1.289725482882385421135041
2.473282544812628991337533 -0.03447985246753187960067066 1.288802692345097034021251
2.473282544812628547248323 0.03447985246753187960067066 1.288802692345096811976646
2.481881914496702812300555 0.01834525850234722602061233 1.28134984179522115610439
2.490788507397135198573324 0.03386540603481535266494618 1.289725482882385643179646
2.47495881313438248483294 -0.00114651913419854109207896 1.273894667731418461897874
2.474119517216542440962712 0.0005320727014820149152959927 1.273587444515060340677337
2.465520147532467731821271 0.01437362839826953654631669 1.281040295064936218594198
2.457760073766233954728477 0.03218681419913474450744673 1.288800368831170217731596
2.457760073766234398817687 -0.003439557402595672282175077 1.288800368831170217731596
2.526851969912340400981066 0.003050590485645518316892844 1.276198620573304909342482
2.528213927820404549606792 -0.0003266746695178776582757507 1.277887253150886692765198
2.522784239703658393239039 -0.01053270156397279402882283 1.286383923818978924913381
2.515992593678849420513188 -0.03024995871628498658734152 1.293191961909489373638849
2.515992593678849420513188 0.009184555588339389856078476 1.293191961909489595683453
2.526424838470581413218952 -0.00390485336916337024207313 1.276098163801064000466567
2.517928167802488736981559 -0.02024484536631216205493367 1.284063882655887889328028
2.512925611127502456554339 -0.03638392381897885552444194 1.292661010096221030352126
2.517928167802489181070769 0.02024484536631216552438062 1.284063882655888111372633
2.512925611127502456554339 0.03638392381897885552444194 1.292661010096221252396731
2.526424838470581413218952 0.003904853369163372410477475 1.276098163801063778421963
2.525062880562517708682435 -0.0005275882139999740500641012 1.274409531223482217043852
2.524635749120758720920321 0.0003266746695178799351003129 1.274309074451241086123332
2.516139078452666044682928 0.01560476304013014986482588 1.282274793306064974984793
2.508069539226332800296859 0.03279901792079679273550497 1.290340968933130216811378
2.508069539226332800296859 -0.001589491840536494090055375 1.290340968933130216811378
1.986110968619647199062683 -0.006666837656423165066332803 1.342777806276070240443232
1.978888774895717794777283 0.0122221082290512664259019 1.335555612552141058202437
1.986110968619647199062683 0.0311110541145256727646462 1.342777806276070240443232
1.989162939301658328261624 -0.03433482427933659542063083 1.323497763580995023602327
1.980719957304924339069885 -0.01989043683147766888863472 1.332942236523732226771699
1.987331756892452006013627 -0.03555561255214106930466755 1.341776315330067248510204
1.980719957304924339069885 0.01989043683147771746089205 1.332942236523732226771699
1.987331756892452006013627 0.03555561255214109706024317 1.341776315330067248510204
1.989162939301658328261624 0.03433482427933662317620644 1.323497763580995023602327
1.989162939301658328261624 -0.003004472838009810634757324 1.307832587860331630125188
1.981330351441326742545357 0.01466368477466014653975979 1.31566517572066343788606
1.989162939301658328261624 0.03233184238733008419863779 1.307832587860331630125188
1.972887369444592753353618 0.002222279218807791945078378 1.325109648663400641055432
1.972276975308190571922751 -0.001001490946003238697442628 1.326721533745806036463932
2.536405771139426335025746 0.0105217910544799578276276 1.327188457721146797041456
2.543202885569713078695031 0.03026089552723997336269868 1.333985572151433318666136
2.543202885569713078695031 -0.009217313418280061176890428 1.333985572151433318666136
2.529603201454392991109899 -0.03640577113942668197044128 1.320391343290860053372171
2.529603201454393435199108 0.03640577113942668197044128 1.320391343290860053372171
2.522806087024106691529823 -0.01666666666666666990481716 1.313594228860573309702886
2.516003517339073347613976 -0.02412693042454611136449216 1.306797114430286566033601
2.516003517339073347613976 0.009206402908787224975695196 1.306797114430286788078206
2.584072172979823278637923 0.01518898737368570839301185 1.331855654040352554545734
2.592036086489911461683278 0.0325944936868428417064969 1.339819567550440737591089
2.592036086489911461683278 -0.002216518939471430124643625 1.339819567550440737591089
2.579094096447438033692379 -0.02047794411925043037148164 1.328355256800948236417526
2.588963648683818341567076 -0.0340721729798238032183022 1.33748596939083785883895
2.570391343290859609282961 -0.03640577113942662645929005 1.333985572151433318666136
2.570391343290859609282961 0.03640577113942662645929005 1.333985572151433318666136
2.579094096447438033692379 0.02047794411925043384092859 1.328355256800948014372921
2.588963648683818341567076 0.0340721729798238032183022 1.33748596939083785883895
2.574202620743442970763226 -0.003072437806093293588549642 1.322724941450462710079705
2.572296982017151290023094 0.0007388396464904696970404929 1.321558142370661270703636
2.563594228860572865613676 0.01052179105447995956235108 1.327188457721146797041456
2.556797114430286121944391 0.03026089552723991785154745 1.333985572151433318666136
2.556797114430286121944391 -0.009217313418280002196292244 1.333985572151433318666136
2.626895802167377169666906 0.003088831274632813234104489 1.326193029107256116105873
2.628264524539662971847065 -0.0003513865300604507996284909 1.32791313800960253388439
2.622844329215932024368385 -0.01048900411740105211022556 1.33642216460796636745556
2.616055411519915274709547 -0.03024450205870053698387068 1.343211082303983339159004
2.616055411519915274709547 0.00926649382389844317176042 1.343211082303982895069794
2.626350689079101741185696 -0.004179057451183747391720846 1.325999302549041303223021
2.61784166248073768556992 -0.0204943375877899777726121 1.333769489500914229296313
2.612966580245282166572451 -0.03642216460796616345207966 1.342472242657493097794941
2.61784166248073768556992 0.0204943375877899638948243 1.333769489500914007251708
2.612966580245282166572451 0.03642216460796614957429185 1.342472242657492653705731
2.626350689079100853007276 0.004179057451183730911847825 1.325999302549041081178416
2.624981966706815050827117 -0.0007388396464904839000889525 1.324279193646694441355294
2.624436853618539622345907 0.0003513865300604347534363381 1.324085467088479406427837
2.615927827020176010819341 0.0151889873736857049235649 1.331855654040352554545734
2.607963913510087827773987 0.03259449368684285558428471 1.339819567550440737591089
2.607963913510087827773987 -0.002216518939471446170835778 1.339819567550440737591089
1.989653559768849833133686 -0.002415728277379942598446227 1.392069288046229758037953
1.981722847815079457944876 0.0150561811484133754174275 1.384138576092459604893747
1.989653559768849833133686 0.03252809057420669169857774 1.392069288046229980082558
1.986110968619647199062683 -0.03555561255214104154909194 1.371666581171788301674042
1.979597293125558099546879 -0.01969418864460102669422525 1.380402535884684755984608
1.98823652330916855746068 -0.03413857609245998098179697 1.38984700882742195915398
1.979597293125558099546879 0.01969418864460103016367221 1.380402535884684755984608
1.98823652330916855746068 0.03413857609245998792069088 1.389847008827422181198585
1.986110968619647199062683 0.03555561255214104154909194 1.371666581171788523718647
1.986110968619647199062683 -0.006666837656423132973948498 1.357222193723929049014032
1.978888774895717794777283 0.01222210822905124560922019 1.364444387447858675344037
1.986110968619647199062683 0.03111105411452562419238888 1.357222193723929493103242
1.972375099401628695261479 0.0008052427591266498457800438 1.373180342160755351699208
1.973083617631469000031075 -0.002222279218807709545713269 1.374694103149722401724375
2.636422164607966411864481 0.01048900411740098098656304 1.37715567078406775358701
2.64321108230398316152332 0.0302445020587004849421664 1.383944588480084281201243
2.64321108230398360561253 -0.009266493823898488274570795 1.383944588480084725290453
2.629633246911949662205643 -0.03642216460796617039097356 1.370366753088050781883567
2.629633246911949218116433 0.03642216460796613569650404 1.370366753088050559838962
2.622844329215932468457595 -0.01666666666666670112983972 1.363577835392034032224728
2.616055411519915274709547 -0.02406683950943490357676779 1.35678891769601683847668
2.616055411519915274709547 0.009266493823898432763419564 1.35678891769601683847668
2.683964486741766908295403 0.01619206395261062539359109 1.382464878567871702230718
2.691982243370883765010149 0.03348988402771055361561992 1.390876487248393633677779
2.691982243370883765010149 -0.001105756122489305647363378 1.390876487248393633677779
2.680820337158498212204449 -0.02038665134973269982276989 1.380189183750064163547222
2.690698086129148070000383 -0.03396448674176659465739903 1.38982963136368575796098
2.672171427120948017375213 -0.03642216460796610100203452 1.385749262512981250239363
2.672171427120948017375213 0.03642216460796609406314062 1.385749262512981250239363
2.68082033715849776811524 0.02038665134973269288387598 1.380189183750064163547222
2.690698086129147625911173 0.03396448674176659465739903 1.38982963136368575796098
2.67408673777111705049947 -0.003088831274632768998655852 1.372824430954250107816961
2.672226745429584049418281 0.0006311534084332559319668876 1.371595592021150444850264
2.663577835392033854589044 0.01048900411740100180324475 1.37715567078406775358701
2.656788917696017104930206 0.03024450205870043983935602 1.383944588480084725290453
2.656788917696017104930206 -0.009266493823898422355078708 1.383944588480084725290453
2.702425710566489502895138 -0.04596401934891017337925234 1.398389729915398671522553
2.703628260410146033621004 -0.01585122618477871614395269 1.396779459830797875952157
2.702425710566489502895138 0.01426156697935274456079391 1.398389729915398671522553
2.702017990325545682139818 -0.0467794598307981202012229 1.398152428558370630184982
2.702017990325545682139818 0.0467794598307981202012229 1.398152428558370630184982
2.701610270084601417295289 0.04630485711674207915944379 1.39791512720134258884741
2.703220540169202212865684 0.01619206395261062192414414 1.396542158473769834614586
2.701610270084601417295289 -0.01392072921152083531115551 1.39791512720134258884741
1.992310713883525652434514 0.003864283301154497647644792 1.411553569417628661852859
1.984621427767051304869028 -0.01666666666666669072149887 1.41924285553410278737374
1.992310713883525652434514 -0.0294690500321788395599043 1.411553569417628439808254
1.976134355817677157318712 -0.0003074772320816187990213941 1.426441833049758800555651
1.975336569984777357333883 0.001288094433718101408659074 1.42595152444894068821668
1.982769516411502452868376 -0.01876000385951143850649103 1.416908092503962324215649
1.991505471124399129223548 -0.03462142776705148805582724 1.410265474983910305439849
1.975087687221254828529027 -0.002400814424926367776635949 1.425395164453336471765965
1.975087687221254828529027 0.002400814424926300989782124 1.425395164453336471765965
1.982769516411502452868376 0.01876000385951139340368066 1.416908092503962324215649
1.991505471124399129223548 0.03462142776705146030025162 1.410265474983910749529059
1.989653559768849833133686 -0.002415728277379920914402778 1.407930711953770064326363
1.98172284781508012407869 0.01505618114841334939657536 1.415861423907539995425964
1.989653559768849833133686 0.03252809057420664312632042 1.407930711953770064326363
1.974041018624832499739341 0.0003074772320815521205877863 1.424348495856914142976279
1.974289901388355028544197 -0.0008052427591266474605352643 1.424904855852517915337785
2.038596748030431449194566 -0.003713965853094049023030987 1.442310713883525608025593
2.030832303189927134923209 0.01424079524729079254674602 1.434621427767051260460107
2.038596748030431449194566 0.03219555634767565927001343 1.442310713883525608025593
2.023143017073453009402328 -0.03462142776705152968919066 1.426932141650576912894621
2.023143017073453009402328 0.03462142776705151581140285 1.426932141650577356983831
2.007689286116474125520881 0.003864283301154552291434285 1.411553569417628661852859
2.015378572232948251041762 -0.01409047779923031790128007 1.41924285553410278737374
2.007689286116474125520881 -0.03204523889961516380786577 1.411553569417628439808254
2.734399398715209095200862 0.01455677805572139563161649 1.431212323645985051712159
2.742199699357604547600431 0.03228951010426352880022804 1.439023745364783390954244
2.742199699357604547600431 -0.003175953992820736235952461 1.439023745364783835043454
2.725940752931882204990188 -0.03439939871520879266508786 1.423412023003589377267986
2.725940752931882204990188 0.03439939871520880654287566 1.423412023003589377267986
2.718140452289486308501409 -0.01666666666666666296592325 1.415600601284790815981296
2.709681806506159418290736 -0.03145182746956991237663459 1.407800300642395363581727
2.709681806506159418290736 0.001881505863763418108861036 1.407800300642395363581727
2.775867005885086946648244 0.001141308295995559392299601 1.425274302410908688898417
2.776289484164540244393038 -0.0002963517370893378440402377 1.425993132427450849064599
2.768986370976302513469136 -0.01430987463938599921209338 1.434474641629329028091888
2.76126077950861148480044 -0.03211784960204825539742401 1.442237320814664602863786
2.76126077950861148480044 0.003498100323276295137153724 1.442237320814664602863786
2.775208087147112756554179 -0.002459145771943737485143444 1.424911735410023583270345
2.766726577945235021616099 -0.01882946070152109740991619 1.432338300306429168529121
2.760082383494971480786262 -0.03447464162932895037627645 1.441182376509191787050668
2.766726577945235021616099 0.01882946070152104189876496 1.432338300306429168529121
2.760082383494971480786262 0.03447464162932892955959474 1.441182376509191787050668
2.775208087147112756554179 0.00245914577194364424375661 1.424911735410023583270345
2.774785608867659902898595 -0.001021485738858839923542954 1.424192905393481201059558
2.77412669012968571280453 0.0002963517370892446026534039 1.423830338392596539520696
2.765645180927807533777241 0.01455677805572136440659392 1.431256903289002124779472
2.757822590463903544844015 0.03224493046124683737208017 1.4390460351862919274879
2.757822590463903544844015 -0.003131374349804079502274101 1.43904603518629237157711
2.042025730860742793737472 0.002497397147875034424668872 1.460471666287131764505602
2.034051461721486209199838 -0.01666666666666664908813544 1.46827442943468100544635
2.042025730860742793737472 -0.03083593618545829931343327 1.460471666287131764505602
2.025602516676074049684075 -0.0002312234241572764322121547 1.475833740100231938896513
2.025127840769918918795156 0.0007181283881534151775777319 1.475590287618234075495138
2.031987968753729223436721 -0.01836778118280493754532756 1.466534237796750961280168
2.040812795151055070164148 -0.0340514617214867157390934 1.459582031907270982529212
2.024751959418005231583493 -0.001932337940295562449949385 1.474983182842162898751326
2.024751959418005231583493 0.001932337940295604516993677 1.474983182842162898751326
2.031987968753729223436721 0.01836778118280496877035013 1.466534237796750961280168
2.040812795151055070164148 0.03405146172148673655577511 1.459582031907270760484607
2.038749302183298084401031 -0.003408857547360734374652935 1.457841840269340716318425
2.031137411495659961246929 0.01424079524729082897593901 1.465683680538681699090375
2.038749302183298084401031 0.03189044804194238191819011 1.457841840269340716318425
2.0239014021599359693937 0.0002312234241573183637311756 1.474132625584093858606138
2.024277283511850100694573 -0.0009829861279848708943696067 1.474739730360164813305346
2.098099159608525443587723 0.03859495765115500409692118 1.490495798042628994295455
2.096198319217051242446814 -0.01666666666666687807163427 1.492396638434103639525574
2.098099159608525443587723 0.005261624317821671226180769 1.490495798042629438384665
2.087391992748188318529401 -0.0009459862710600730473231579 1.488337979019248358270033
2.080486506670799151663687 0.01286498588371826241882889 1.482378479212918875873584
2.09410338644459059764813 -0.04619831921705178784387513 1.490301705661642772682285
2.072626166472995468126328 -0.03047763882144498628901097 1.474461787123916511887955
2.077436719777923990193358 -0.04619831921705178784387513 1.478326354157784905396511